<?xml version="1.0" encoding="UTF-8"?>

<!-- generated on 2025-08-18 21:30:07 by Eclipse SUMO sumo Version 1.21.0
<sumoConfiguration xmlns:xsi="http://www.w3.org/2001/XMLSchema-instance" xsi:noNamespaceSchemaLocation="http://sumo.dlr.de/xsd/sumoConfiguration.xsd">

    <input>
        <net-file value="sumo_files\budapest_downtown.net.xml"/>
        <route-files value="sumo_files\budapest_downtown.rou.xml"/>
        <junction-taz value="true"/>
    </input>

    <output>
        <tripinfo-output value="sumo_files\tripinfo.xml"/>
    </output>

    <time>
        <begin value="0"/>
    </time>

    <report>
        <no-warnings value="true"/>
        <no-step-log value="true"/>
    </report>

    <traci_server>
        <remote-port value="56668"/>
    </traci_server>

</sumoConfiguration>
-->

<tripinfos xmlns:xsi="http://www.w3.org/2001/XMLSchema-instance" xsi:noNamespaceSchemaLocation="http://sumo.dlr.de/xsd/tripinfo_file.xsd">
    <tripinfo id="0" depart="0.00" departLane="262231176_0" departPos="5.10" departSpeed="0.00" departDelay="0.00" arrival="43.00" arrivalLane="-1253318580#2_0" arrivalPos="25.79" arrivalSpeed="13.68" duration="43.00" routeLength="523.74" waitingTime="0.00" waitingCount="0" stopTime="0.00" timeLoss="6.98" rerouteNo="0" devices="tripinfo_0" vType="DEFAULT_VEHTYPE" speedFactor="1.06" vaporized=""/>
    <tripinfo id="19" depart="19.00" departLane="674891679_0" departPos="5.10" departSpeed="0.00" departDelay="0.00" arrival="58.00" arrivalLane="245403950_0" arrivalPos="61.39" arrivalSpeed="12.05" duration="39.00" routeLength="264.87" waitingTime="0.00" waitingCount="0" stopTime="0.00" timeLoss="11.77" rerouteNo="0" devices="tripinfo_19" vType="DEFAULT_VEHTYPE" speedFactor="0.88" vaporized=""/>
    <tripinfo id="55" depart="55.00" departLane="736516758_0" departPos="5.10" departSpeed="0.00" departDelay="0.00" arrival="73.00" arrivalLane="1155761493_0" arrivalPos="11.46" arrivalSpeed="8.14" duration="18.00" routeLength="151.92" waitingTime="0.00" waitingCount="0" stopTime="0.00" timeLoss="4.24" rerouteNo="0" devices="tripinfo_55" vType="DEFAULT_VEHTYPE" speedFactor="0.85" vaporized=""/>
    <tripinfo id="69" depart="69.00" departLane="453993138#0_0" departPos="5.10" departSpeed="0.00" departDelay="0.00" arrival="95.00" arrivalLane="-262231174#0_2" arrivalPos="47.63" arrivalSpeed="12.77" duration="26.00" routeLength="267.77" waitingTime="0.00" waitingCount="0" stopTime="0.00" timeLoss="4.28" rerouteNo="0" devices="tripinfo_69" vType="DEFAULT_VEHTYPE" speedFactor="0.97" vaporized=""/>
    <tripinfo id="11" depart="11.00" departLane="127553887#1_0" departPos="5.10" departSpeed="0.00" departDelay="0.00" arrival="98.00" arrivalLane="-296896080_2" arrivalPos="52.66" arrivalSpeed="14.02" duration="87.00" routeLength="462.76" waitingTime="46.00" waitingCount="1" stopTime="0.00" timeLoss="54.80" rerouteNo="0" devices="tripinfo_11" vType="DEFAULT_VEHTYPE" speedFactor="1.09" vaporized=""/>
    <tripinfo id="40" depart="40.00" departLane="24333262#1_0" departPos="5.10" departSpeed="0.00" departDelay="0.00" arrival="110.00" arrivalLane="1155761493_0" arrivalPos="11.46" arrivalSpeed="12.57" duration="70.00" routeLength="561.70" waitingTime="0.00" waitingCount="0" stopTime="0.00" timeLoss="9.18" rerouteNo="0" devices="tripinfo_40" vType="DEFAULT_VEHTYPE" speedFactor="1.02" vaporized=""/>
    <tripinfo id="35" depart="35.00" departLane="-555569706_0" departPos="3.80" departSpeed="0.00" departDelay="0.00" arrival="112.00" arrivalLane="9798492#1_0" arrivalPos="148.28" arrivalSpeed="15.75" duration="77.00" routeLength="995.18" waitingTime="0.00" waitingCount="0" stopTime="0.00" timeLoss="14.66" rerouteNo="0" devices="tripinfo_35" vType="DEFAULT_VEHTYPE" speedFactor="1.18" vaporized=""/>
    <tripinfo id="33" depart="35.00" departLane="-700454260#1_0" departPos="5.10" departSpeed="0.00" departDelay="2.00" arrival="116.00" arrivalLane="-128169317#1_1" arrivalPos="16.27" arrivalSpeed="14.73" duration="81.00" routeLength="800.03" waitingTime="5.00" waitingCount="1" stopTime="0.00" timeLoss="27.50" rerouteNo="0" devices="tripinfo_33" vType="DEFAULT_VEHTYPE" speedFactor="1.13" vaporized=""/>
    <tripinfo id="5" depart="5.00" departLane="-57690816_0" departPos="5.10" departSpeed="0.00" departDelay="0.00" arrival="118.00" arrivalLane="23989694#1_0" arrivalPos="82.33" arrivalSpeed="13.05" duration="113.00" routeLength="1284.91" waitingTime="0.00" waitingCount="0" stopTime="0.00" timeLoss="17.30" rerouteNo="0" devices="tripinfo_5" vType="DEFAULT_VEHTYPE" speedFactor="1.03" vaporized=""/>
    <tripinfo id="6" depart="6.00" departLane="-127554020#2_0" departPos="5.10" departSpeed="0.00" departDelay="0.00" arrival="119.00" arrivalLane="-55055055#1_0" arrivalPos="88.16" arrivalSpeed="11.35" duration="113.00" routeLength="646.09" waitingTime="37.00" waitingCount="3" stopTime="0.00" timeLoss="55.00" rerouteNo="0" devices="tripinfo_6" vType="DEFAULT_VEHTYPE" speedFactor="0.83" vaporized=""/>
    <tripinfo id="37" depart="37.00" departLane="262551662#4_0" departPos="5.10" departSpeed="0.00" departDelay="0.00" arrival="119.00" arrivalLane="1416556780#0_0" arrivalPos="2.73" arrivalSpeed="12.29" duration="82.00" routeLength="682.63" waitingTime="3.00" waitingCount="3" stopTime="0.00" timeLoss="23.96" rerouteNo="0" devices="tripinfo_37" vType="DEFAULT_VEHTYPE" speedFactor="1.01" vaporized=""/>
    <tripinfo id="15" depart="15.00" departLane="55055033#3_0" departPos="5.10" departSpeed="0.00" departDelay="0.00" arrival="128.00" arrivalLane="360786544#1_0" arrivalPos="52.71" arrivalSpeed="13.13" duration="113.00" routeLength="491.69" waitingTime="55.00" waitingCount="3" stopTime="0.00" timeLoss="75.53" rerouteNo="0" devices="tripinfo_15" vType="DEFAULT_VEHTYPE" speedFactor="0.99" vaporized=""/>
    <tripinfo id="67" depart="67.00" departLane="-24006172_0" departPos="5.10" departSpeed="0.00" departDelay="0.00" arrival="129.00" arrivalLane="23989430#1_0" arrivalPos="73.24" arrivalSpeed="13.11" duration="62.00" routeLength="531.76" waitingTime="0.00" waitingCount="0" stopTime="0.00" timeLoss="13.32" rerouteNo="0" devices="tripinfo_67" vType="DEFAULT_VEHTYPE" speedFactor="1.02" vaporized=""/>
    <tripinfo id="2" depart="2.00" departLane="364403765_0" departPos="5.10" departSpeed="0.00" departDelay="0.00" arrival="138.00" arrivalLane="296910355_2" arrivalPos="18.60" arrivalSpeed="13.17" duration="136.00" routeLength="1262.69" waitingTime="6.00" waitingCount="2" stopTime="0.00" timeLoss="40.03" rerouteNo="0" devices="tripinfo_2" vType="DEFAULT_VEHTYPE" speedFactor="1.01" vaporized=""/>
    <tripinfo id="31" depart="31.00" departLane="24210221#0_0" departPos="5.10" departSpeed="0.00" departDelay="0.00" arrival="138.00" arrivalLane="310830440_0" arrivalPos="42.46" arrivalSpeed="7.16" duration="107.00" routeLength="924.67" waitingTime="0.00" waitingCount="0" stopTime="0.00" timeLoss="18.26" rerouteNo="0" devices="tripinfo_31" vType="DEFAULT_VEHTYPE" speedFactor="0.95" vaporized=""/>
    <tripinfo id="8" depart="8.00" departLane="-57690816_0" departPos="5.10" departSpeed="0.00" departDelay="0.00" arrival="142.00" arrivalLane="25094807#0_0" arrivalPos="136.55" arrivalSpeed="7.25" duration="134.00" routeLength="1015.28" waitingTime="0.00" waitingCount="0" stopTime="0.00" timeLoss="16.50" rerouteNo="0" devices="tripinfo_8" vType="DEFAULT_VEHTYPE" speedFactor="0.89" vaporized=""/>
    <tripinfo id="104" depart="104.00" departLane="1347554397_0" departPos="5.10" departSpeed="0.00" departDelay="0.00" arrival="142.00" arrivalLane="9811244#4_0" arrivalPos="133.77" arrivalSpeed="14.22" duration="38.00" routeLength="384.19" waitingTime="0.00" waitingCount="0" stopTime="0.00" timeLoss="7.63" rerouteNo="0" devices="tripinfo_104" vType="DEFAULT_VEHTYPE" speedFactor="1.04" vaporized=""/>
    <tripinfo id="45" depart="45.00" departLane="-25215335#2_0" departPos="5.10" departSpeed="0.00" departDelay="0.00" arrival="146.00" arrivalLane="262231172#1_2" arrivalPos="26.60" arrivalSpeed="10.71" duration="101.00" routeLength="892.22" waitingTime="0.00" waitingCount="0" stopTime="0.00" timeLoss="18.93" rerouteNo="0" devices="tripinfo_45" vType="DEFAULT_VEHTYPE" speedFactor="0.90" vaporized=""/>
    <tripinfo id="14" depart="14.00" departLane="555576783#0_0" departPos="5.10" departSpeed="0.00" departDelay="0.00" arrival="148.00" arrivalLane="25360189#0_0" arrivalPos="56.75" arrivalSpeed="14.98" duration="134.00" routeLength="1206.60" waitingTime="36.00" waitingCount="2" stopTime="0.00" timeLoss="55.49" rerouteNo="0" devices="tripinfo_14" vType="DEFAULT_VEHTYPE" speedFactor="1.12" vaporized=""/>
    <tripinfo id="46" depart="46.00" departLane="54533180#1_0" departPos="5.10" departSpeed="0.00" departDelay="0.00" arrival="148.00" arrivalLane="224679204#0_0" arrivalPos="73.58" arrivalSpeed="13.53" duration="102.00" routeLength="977.14" waitingTime="0.00" waitingCount="0" stopTime="0.00" timeLoss="16.69" rerouteNo="0" devices="tripinfo_46" vType="DEFAULT_VEHTYPE" speedFactor="1.03" vaporized=""/>
    <tripinfo id="88" depart="88.00" departLane="-24210221#2_0" departPos="2.84" departSpeed="0.00" departDelay="0.00" arrival="150.00" arrivalLane="22790420#1_0" arrivalPos="82.86" arrivalSpeed="12.78" duration="62.00" routeLength="656.39" waitingTime="0.00" waitingCount="0" stopTime="0.00" timeLoss="11.82" rerouteNo="0" devices="tripinfo_88" vType="DEFAULT_VEHTYPE" speedFactor="0.96" vaporized=""/>
    <tripinfo id="77" depart="77.00" departLane="-262231172#1_0" departPos="5.10" departSpeed="0.00" departDelay="0.00" arrival="151.00" arrivalLane="-57690816_0" arrivalPos="29.73" arrivalSpeed="12.21" duration="74.00" routeLength="595.04" waitingTime="1.00" waitingCount="1" stopTime="0.00" timeLoss="18.30" rerouteNo="0" devices="tripinfo_77" vType="DEFAULT_VEHTYPE" speedFactor="0.88" vaporized=""/>
    <tripinfo id="62" depart="64.00" departLane="-1128250890_0" departPos="5.10" departSpeed="0.00" departDelay="2.00" arrival="152.00" arrivalLane="1253270544#2_0" arrivalPos="32.00" arrivalSpeed="13.32" duration="88.00" routeLength="903.50" waitingTime="1.00" waitingCount="1" stopTime="0.00" timeLoss="19.92" rerouteNo="0" devices="tripinfo_62" vType="DEFAULT_VEHTYPE" speedFactor="1.00" vaporized=""/>
    <tripinfo id="65" depart="65.00" departLane="1232044472#1_0" departPos="5.10" departSpeed="0.00" departDelay="0.00" arrival="152.00" arrivalLane="-22790427#0_0" arrivalPos="0.20" arrivalSpeed="14.75" duration="87.00" routeLength="620.03" waitingTime="25.00" waitingCount="1" stopTime="0.00" timeLoss="43.93" rerouteNo="0" devices="tripinfo_65" vType="DEFAULT_VEHTYPE" speedFactor="1.14" vaporized=""/>
    <tripinfo id="1" depart="1.00" departLane="1188956037_0" departPos="5.10" departSpeed="0.00" departDelay="0.00" arrival="156.00" arrivalLane="-57690816_0" arrivalPos="29.73" arrivalSpeed="11.62" duration="155.00" routeLength="871.63" waitingTime="63.00" waitingCount="2" stopTime="0.00" timeLoss="82.29" rerouteNo="0" devices="tripinfo_1" vType="DEFAULT_VEHTYPE" speedFactor="0.94" vaporized=""/>
    <tripinfo id="79" depart="83.00" departLane="-700454260#2_0" departPos="0.20" departSpeed="0.00" departDelay="4.00" arrival="159.00" arrivalLane="-555576774#0_0" arrivalPos="97.85" arrivalSpeed="12.69" duration="76.00" routeLength="661.14" waitingTime="0.00" waitingCount="0" stopTime="0.00" timeLoss="18.61" rerouteNo="0" devices="tripinfo_79" vType="DEFAULT_VEHTYPE" speedFactor="0.91" vaporized=""/>
    <tripinfo id="52" depart="52.00" departLane="1187891489_0" departPos="0.53" departSpeed="0.00" departDelay="0.00" arrival="160.00" arrivalLane="262551662#0_0" arrivalPos="64.85" arrivalSpeed="13.53" duration="108.00" routeLength="1013.95" waitingTime="4.00" waitingCount="1" stopTime="0.00" timeLoss="29.79" rerouteNo="0" devices="tripinfo_52" vType="DEFAULT_VEHTYPE" speedFactor="1.00" vaporized=""/>
    <tripinfo id="84" depart="84.00" departLane="-555576774#0_0" departPos="5.10" departSpeed="0.00" departDelay="0.00" arrival="161.00" arrivalLane="-262231177#0_0" arrivalPos="44.63" arrivalSpeed="12.73" duration="77.00" routeLength="453.54" waitingTime="23.00" waitingCount="1" stopTime="0.00" timeLoss="41.07" rerouteNo="0" devices="tripinfo_84" vType="DEFAULT_VEHTYPE" speedFactor="0.94" vaporized=""/>
    <tripinfo id="38" depart="38.00" departLane="914641146#1_0" departPos="5.10" departSpeed="0.00" departDelay="0.00" arrival="164.00" arrivalLane="23226727#2_0" arrivalPos="59.78" arrivalSpeed="14.15" duration="126.00" routeLength="777.53" waitingTime="45.00" waitingCount="2" stopTime="0.00" timeLoss="72.80" rerouteNo="0" devices="tripinfo_38" vType="DEFAULT_VEHTYPE" speedFactor="1.17" vaporized=""/>
    <tripinfo id="59" depart="59.00" departLane="25277958_0" departPos="5.10" departSpeed="0.00" departDelay="0.00" arrival="164.00" arrivalLane="-296896079_2" arrivalPos="0.20" arrivalSpeed="12.86" duration="105.00" routeLength="509.24" waitingTime="49.00" waitingCount="1" stopTime="0.00" timeLoss="65.50" rerouteNo="0" devices="tripinfo_59" vType="DEFAULT_VEHTYPE" speedFactor="1.02" vaporized=""/>
    <tripinfo id="47" depart="47.00" departLane="-22790430#1_0" departPos="5.10" departSpeed="0.00" departDelay="0.00" arrival="165.00" arrivalLane="135198600#2_0" arrivalPos="0.82" arrivalSpeed="12.90" duration="118.00" routeLength="1246.17" waitingTime="1.00" waitingCount="1" stopTime="0.00" timeLoss="20.34" rerouteNo="0" devices="tripinfo_47" vType="DEFAULT_VEHTYPE" speedFactor="0.96" vaporized=""/>
    <tripinfo id="12" depart="12.00" departLane="9810860#2_0" departPos="5.10" departSpeed="0.00" departDelay="0.00" arrival="166.00" arrivalLane="127553887#1_0" arrivalPos="59.05" arrivalSpeed="13.50" duration="154.00" routeLength="1149.39" waitingTime="27.00" waitingCount="2" stopTime="0.00" timeLoss="58.78" rerouteNo="0" devices="tripinfo_12" vType="DEFAULT_VEHTYPE" speedFactor="1.03" vaporized=""/>
    <tripinfo id="74" depart="74.00" departLane="-555567146_0" departPos="5.10" departSpeed="0.00" departDelay="0.00" arrival="166.00" arrivalLane="124717762_0" arrivalPos="8.34" arrivalSpeed="12.70" duration="92.00" routeLength="422.58" waitingTime="41.00" waitingCount="1" stopTime="0.00" timeLoss="59.35" rerouteNo="0" devices="tripinfo_74" vType="DEFAULT_VEHTYPE" speedFactor="0.99" vaporized=""/>
    <tripinfo id="82" depart="84.00" departLane="609297331_0" departPos="5.10" departSpeed="0.00" departDelay="2.00" arrival="166.00" arrivalLane="-23226727#2_0" arrivalPos="59.78" arrivalSpeed="8.24" duration="82.00" routeLength="655.47" waitingTime="8.00" waitingCount="1" stopTime="0.00" timeLoss="31.04" rerouteNo="0" devices="tripinfo_82" vType="DEFAULT_VEHTYPE" speedFactor="1.02" vaporized=""/>
    <tripinfo id="71" depart="71.00" departLane="1165461456_0" departPos="5.10" departSpeed="0.00" departDelay="0.00" arrival="171.00" arrivalLane="691417330_0" arrivalPos="39.74" arrivalSpeed="14.44" duration="100.00" routeLength="1029.82" waitingTime="0.00" waitingCount="0" stopTime="0.00" timeLoss="25.07" rerouteNo="0" devices="tripinfo_71" vType="DEFAULT_VEHTYPE" speedFactor="1.08" vaporized=""/>
    <tripinfo id="137" depart="137.00" departLane="-262551662#1_0" departPos="5.10" departSpeed="0.00" departDelay="0.00" arrival="179.00" arrivalLane="-25215335#2_0" arrivalPos="86.35" arrivalSpeed="12.99" duration="42.00" routeLength="448.47" waitingTime="0.00" waitingCount="0" stopTime="0.00" timeLoss="7.69" rerouteNo="0" devices="tripinfo_137" vType="DEFAULT_VEHTYPE" speedFactor="0.99" vaporized=""/>
    <tripinfo id="27" depart="27.00" departLane="262551662#0_0" departPos="5.10" departSpeed="0.00" departDelay="0.00" arrival="184.00" arrivalLane="259204127#1_0" arrivalPos="0.20" arrivalSpeed="8.41" duration="157.00" routeLength="1150.84" waitingTime="20.00" waitingCount="2" stopTime="0.00" timeLoss="45.57" rerouteNo="0" devices="tripinfo_27" vType="DEFAULT_VEHTYPE" speedFactor="0.89" vaporized=""/>
    <tripinfo id="22" depart="22.00" departLane="-23989681#0_0" departPos="1.45" departSpeed="0.00" departDelay="0.00" arrival="186.00" arrivalLane="-700454260#1_0" arrivalPos="26.35" arrivalSpeed="8.78" duration="164.00" routeLength="858.75" waitingTime="67.00" waitingCount="3" stopTime="0.00" timeLoss="104.96" rerouteNo="0" devices="tripinfo_22" vType="DEFAULT_VEHTYPE" speedFactor="1.16" vaporized=""/>
    <tripinfo id="9" depart="9.00" departLane="55055033#4_0" departPos="5.10" departSpeed="0.00" departDelay="0.00" arrival="190.00" arrivalLane="-1157513715#1_1" arrivalPos="3.72" arrivalSpeed="4.30" duration="181.00" routeLength="782.68" waitingTime="97.00" waitingCount="3" stopTime="0.00" timeLoss="119.53" rerouteNo="0" devices="tripinfo_9" vType="DEFAULT_VEHTYPE" speedFactor="0.94" vaporized=""/>
    <tripinfo id="13" depart="13.00" departLane="-24021598#1_0" departPos="5.10" departSpeed="0.00" departDelay="0.00" arrival="190.00" arrivalLane="-24210221#0_0" arrivalPos="43.66" arrivalSpeed="13.69" duration="177.00" routeLength="1575.40" waitingTime="39.00" waitingCount="1" stopTime="0.00" timeLoss="65.52" rerouteNo="0" devices="tripinfo_13" vType="DEFAULT_VEHTYPE" speedFactor="1.05" vaporized=""/>
    <tripinfo id="171" depart="171.00" departLane="-1253318580#2_0" departPos="5.10" departSpeed="0.00" departDelay="0.00" arrival="191.00" arrivalLane="-55055053#0_0" arrivalPos="47.95" arrivalSpeed="8.94" duration="20.00" routeLength="110.00" waitingTime="2.00" waitingCount="1" stopTime="0.00" timeLoss="8.69" rerouteNo="0" devices="tripinfo_171" vType="DEFAULT_VEHTYPE" speedFactor="0.73" vaporized=""/>
    <tripinfo id="10" depart="10.00" departLane="55055033#3_0" departPos="5.10" departSpeed="0.00" departDelay="0.00" arrival="192.00" arrivalLane="322822557#1_0" arrivalPos="62.77" arrivalSpeed="11.35" duration="182.00" routeLength="823.13" waitingTime="87.00" waitingCount="3" stopTime="0.00" timeLoss="110.34" rerouteNo="0" devices="tripinfo_10" vType="DEFAULT_VEHTYPE" speedFactor="0.86" vaporized=""/>
    <tripinfo id="80" depart="80.00" departLane="-23226727#2_0" departPos="5.10" departSpeed="0.00" departDelay="0.00" arrival="192.00" arrivalLane="262231176_1" arrivalPos="51.11" arrivalSpeed="14.36" duration="112.00" routeLength="1044.05" waitingTime="2.00" waitingCount="1" stopTime="0.00" timeLoss="34.13" rerouteNo="0" devices="tripinfo_80" vType="DEFAULT_VEHTYPE" speedFactor="1.04" vaporized=""/>
    <tripinfo id="24" depart="24.00" departLane="262231174#0_0" departPos="5.10" departSpeed="0.00" departDelay="0.00" arrival="193.00" arrivalLane="1304438919_0" arrivalPos="96.55" arrivalSpeed="13.09" duration="169.00" routeLength="1292.10" waitingTime="45.00" waitingCount="2" stopTime="0.00" timeLoss="74.37" rerouteNo="0" devices="tripinfo_24" vType="DEFAULT_VEHTYPE" speedFactor="1.02" vaporized=""/>
    <tripinfo id="126" depart="126.00" departLane="-23681389#0_0" departPos="0.20" departSpeed="0.00" departDelay="0.00" arrival="194.00" arrivalLane="23226727#1_0" arrivalPos="67.20" arrivalSpeed="14.02" duration="68.00" routeLength="478.65" waitingTime="18.00" waitingCount="1" stopTime="0.00" timeLoss="33.14" rerouteNo="0" devices="tripinfo_126" vType="DEFAULT_VEHTYPE" speedFactor="1.03" vaporized=""/>
    <tripinfo id="30" depart="30.00" departLane="9811464#0_0" departPos="5.10" departSpeed="0.00" departDelay="0.00" arrival="197.00" arrivalLane="262551662#0_0" arrivalPos="64.85" arrivalSpeed="12.15" duration="167.00" routeLength="1202.19" waitingTime="44.00" waitingCount="3" stopTime="0.00" timeLoss="69.28" rerouteNo="0" devices="tripinfo_30" vType="DEFAULT_VEHTYPE" speedFactor="0.92" vaporized=""/>
    <tripinfo id="118" depart="118.00" departLane="785648016_0" departPos="5.01" departSpeed="0.00" departDelay="0.00" arrival="197.00" arrivalLane="-914641145_0" arrivalPos="123.75" arrivalSpeed="12.04" duration="79.00" routeLength="861.85" waitingTime="0.00" waitingCount="0" stopTime="0.00" timeLoss="11.53" rerouteNo="0" devices="tripinfo_118" vType="DEFAULT_VEHTYPE" speedFactor="0.96" vaporized=""/>
    <tripinfo id="7" depart="7.00" departLane="262551662#1_0" departPos="5.10" departSpeed="0.00" departDelay="0.00" arrival="198.00" arrivalLane="24036229_0" arrivalPos="62.09" arrivalSpeed="14.04" duration="191.00" routeLength="1418.52" waitingTime="46.00" waitingCount="2" stopTime="0.00" timeLoss="84.95" rerouteNo="0" devices="tripinfo_7" vType="DEFAULT_VEHTYPE" speedFactor="1.05" vaporized=""/>
    <tripinfo id="73" depart="73.00" departLane="24034846#2_0" departPos="5.10" departSpeed="0.00" departDelay="0.00" arrival="200.00" arrivalLane="360786544#1_0" arrivalPos="52.71" arrivalSpeed="13.99" duration="127.00" routeLength="811.91" waitingTime="43.00" waitingCount="1" stopTime="0.00" timeLoss="62.80" rerouteNo="0" devices="tripinfo_73" vType="DEFAULT_VEHTYPE" speedFactor="1.02" vaporized=""/>
    <tripinfo id="36" depart="36.00" departLane="736516758_0" departPos="5.10" departSpeed="0.00" departDelay="0.00" arrival="201.00" arrivalLane="1249865186#1_0" arrivalPos="121.02" arrivalSpeed="15.38" duration="165.00" routeLength="996.88" waitingTime="71.00" waitingCount="2" stopTime="0.00" timeLoss="101.04" rerouteNo="0" devices="tripinfo_36" vType="DEFAULT_VEHTYPE" speedFactor="1.15" vaporized=""/>
    <tripinfo id="90" depart="90.00" departLane="334872366#0_0" departPos="5.10" departSpeed="0.00" departDelay="0.00" arrival="201.00" arrivalLane="296910353_2" arrivalPos="2.53" arrivalSpeed="9.76" duration="111.00" routeLength="945.14" waitingTime="19.00" waitingCount="2" stopTime="0.00" timeLoss="44.20" rerouteNo="0" devices="tripinfo_90" vType="DEFAULT_VEHTYPE" speedFactor="1.03" vaporized=""/>
    <tripinfo id="103" depart="103.00" departLane="1416556780#1_0" departPos="5.10" departSpeed="0.00" departDelay="0.00" arrival="202.00" arrivalLane="-22790427#0_0" arrivalPos="0.20" arrivalSpeed="13.45" duration="99.00" routeLength="915.06" waitingTime="5.00" waitingCount="1" stopTime="0.00" timeLoss="22.08" rerouteNo="0" devices="tripinfo_103" vType="DEFAULT_VEHTYPE" speedFactor="1.00" vaporized=""/>
    <tripinfo id="25" depart="25.00" departLane="1304438922_0" departPos="5.10" departSpeed="0.00" departDelay="0.00" arrival="204.00" arrivalLane="-555567146_1" arrivalPos="9.41" arrivalSpeed="12.76" duration="179.00" routeLength="798.89" waitingTime="95.00" waitingCount="2" stopTime="0.00" timeLoss="120.00" rerouteNo="0" devices="tripinfo_25" vType="DEFAULT_VEHTYPE" speedFactor="1.01" vaporized=""/>
    <tripinfo id="94" depart="94.00" departLane="-55055055#0_0" departPos="5.10" departSpeed="0.00" departDelay="0.00" arrival="204.00" arrivalLane="22790430#1_0" arrivalPos="99.52" arrivalSpeed="13.92" duration="110.00" routeLength="658.47" waitingTime="34.00" waitingCount="1" stopTime="0.00" timeLoss="59.38" rerouteNo="0" devices="tripinfo_94" vType="DEFAULT_VEHTYPE" speedFactor="1.03" vaporized=""/>
    <tripinfo id="42" depart="42.00" departLane="1416556780#0_0" departPos="2.73" departSpeed="0.00" departDelay="0.00" arrival="207.00" arrivalLane="-555576774#0_0" arrivalPos="97.85" arrivalSpeed="13.36" duration="165.00" routeLength="1025.07" waitingTime="60.00" waitingCount="2" stopTime="0.00" timeLoss="81.94" rerouteNo="0" devices="tripinfo_42" vType="DEFAULT_VEHTYPE" speedFactor="0.97" vaporized=""/>
    <tripinfo id="135" depart="135.00" departLane="55055053#1_0" departPos="5.10" departSpeed="0.00" departDelay="0.00" arrival="211.00" arrivalLane="1230123862_0" arrivalPos="10.69" arrivalSpeed="14.57" duration="76.00" routeLength="281.68" waitingTime="42.00" waitingCount="2" stopTime="0.00" timeLoss="57.82" rerouteNo="0" devices="tripinfo_135" vType="DEFAULT_VEHTYPE" speedFactor="1.18" vaporized=""/>
    <tripinfo id="152" depart="152.00" departLane="-296896079_0" departPos="0.20" departSpeed="0.00" departDelay="0.00" arrival="211.00" arrivalLane="-262231174#0_2" arrivalPos="47.63" arrivalSpeed="13.52" duration="59.00" routeLength="647.03" waitingTime="3.00" waitingCount="1" stopTime="0.00" timeLoss="12.20" rerouteNo="0" devices="tripinfo_152" vType="DEFAULT_VEHTYPE" speedFactor="1.01" vaporized=""/>
    <tripinfo id="127" depart="127.00" departLane="9811595_0" departPos="5.10" departSpeed="0.00" departDelay="0.00" arrival="212.00" arrivalLane="9811521#1_0" arrivalPos="56.00" arrivalSpeed="13.54" duration="85.00" routeLength="562.42" waitingTime="20.00" waitingCount="1" stopTime="0.00" timeLoss="38.12" rerouteNo="0" devices="tripinfo_127" vType="DEFAULT_VEHTYPE" speedFactor="1.06" vaporized=""/>
    <tripinfo id="186" depart="186.00" departLane="365005998_0" departPos="5.10" departSpeed="0.00" departDelay="0.00" arrival="212.00" arrivalLane="296896081#0_2" arrivalPos="18.69" arrivalSpeed="11.04" duration="26.00" routeLength="93.13" waitingTime="5.00" waitingCount="1" stopTime="0.00" timeLoss="18.66" rerouteNo="0" devices="tripinfo_186" vType="DEFAULT_VEHTYPE" speedFactor="1.18" vaporized=""/>
    <tripinfo id="16" depart="16.00" departLane="24034846#1_0" departPos="5.10" departSpeed="0.00" departDelay="0.00" arrival="214.00" arrivalLane="9811081#1_0" arrivalPos="76.68" arrivalSpeed="12.02" duration="198.00" routeLength="1699.58" waitingTime="8.00" waitingCount="1" stopTime="0.00" timeLoss="41.16" rerouteNo="0" devices="tripinfo_16" vType="DEFAULT_VEHTYPE" speedFactor="0.93" vaporized=""/>
    <tripinfo id="49" depart="49.00" departLane="9811081#1_0" departPos="5.10" departSpeed="0.00" departDelay="0.00" arrival="214.00" arrivalLane="557965292#1_0" arrivalPos="1.61" arrivalSpeed="8.23" duration="165.00" routeLength="1220.10" waitingTime="22.00" waitingCount="2" stopTime="0.00" timeLoss="57.92" rerouteNo="0" devices="tripinfo_49" vType="DEFAULT_VEHTYPE" speedFactor="1.04" vaporized=""/>
    <tripinfo id="121" depart="121.00" departLane="24005698_0" departPos="5.10" departSpeed="0.00" departDelay="0.00" arrival="215.00" arrivalLane="9797564#4_0" arrivalPos="41.65" arrivalSpeed="7.80" duration="94.00" routeLength="693.79" waitingTime="13.00" waitingCount="1" stopTime="0.00" timeLoss="30.57" rerouteNo="0" devices="tripinfo_121" vType="DEFAULT_VEHTYPE" speedFactor="0.95" vaporized=""/>
    <tripinfo id="168" depart="168.00" departLane="-672774617_0" departPos="5.10" departSpeed="0.00" departDelay="0.00" arrival="215.00" arrivalLane="55055033#5_0" arrivalPos="4.88" arrivalSpeed="11.95" duration="47.00" routeLength="439.99" waitingTime="0.00" waitingCount="0" stopTime="0.00" timeLoss="12.03" rerouteNo="0" devices="tripinfo_168" vType="DEFAULT_VEHTYPE" speedFactor="0.94" vaporized=""/>
    <tripinfo id="203" depart="203.00" departLane="-23989910_0" departPos="5.10" departSpeed="0.00" departDelay="0.00" arrival="215.00" arrivalLane="23989910_0" arrivalPos="38.16" arrivalSpeed="12.47" duration="12.00" routeLength="74.77" waitingTime="0.00" waitingCount="0" stopTime="0.00" timeLoss="5.76" rerouteNo="0" devices="tripinfo_203" vType="DEFAULT_VEHTYPE" speedFactor="1.09" vaporized=""/>
    <tripinfo id="54" depart="54.00" departLane="22790431#0_0" departPos="5.10" departSpeed="0.00" departDelay="0.00" arrival="220.00" arrivalLane="9810678#2_0" arrivalPos="44.30" arrivalSpeed="11.18" duration="166.00" routeLength="964.23" waitingTime="57.00" waitingCount="2" stopTime="0.00" timeLoss="83.11" rerouteNo="0" devices="tripinfo_54" vType="DEFAULT_VEHTYPE" speedFactor="0.88" vaporized=""/>
    <tripinfo id="106" depart="106.00" departLane="22790431#1_0" departPos="5.10" departSpeed="0.00" departDelay="0.00" arrival="222.00" arrivalLane="224679204#0_0" arrivalPos="73.58" arrivalSpeed="13.03" duration="116.00" routeLength="811.25" waitingTime="30.00" waitingCount="1" stopTime="0.00" timeLoss="54.23" rerouteNo="0" devices="tripinfo_106" vType="DEFAULT_VEHTYPE" speedFactor="1.02" vaporized=""/>
    <tripinfo id="28" depart="28.00" departLane="-431400698#0_0" departPos="5.10" departSpeed="0.00" departDelay="0.00" arrival="224.00" arrivalLane="334872366#0_0" arrivalPos="51.81" arrivalSpeed="10.78" duration="196.00" routeLength="1553.65" waitingTime="19.00" waitingCount="2" stopTime="0.00" timeLoss="54.90" rerouteNo="0" devices="tripinfo_28" vType="DEFAULT_VEHTYPE" speedFactor="0.83" vaporized=""/>
    <tripinfo id="60" depart="60.00" departLane="443454745_0" departPos="5.10" departSpeed="0.00" departDelay="0.00" arrival="229.00" arrivalLane="24034846#2_0" arrivalPos="92.08" arrivalSpeed="14.62" duration="169.00" routeLength="1601.87" waitingTime="18.00" waitingCount="1" stopTime="0.00" timeLoss="58.55" rerouteNo="0" devices="tripinfo_60" vType="DEFAULT_VEHTYPE" speedFactor="1.10" vaporized=""/>
    <tripinfo id="205" depart="205.00" departLane="55055053#1_0" departPos="5.10" departSpeed="0.00" departDelay="0.00" arrival="233.00" arrivalLane="385184672_0" arrivalPos="95.45" arrivalSpeed="12.35" duration="28.00" routeLength="282.78" waitingTime="0.00" waitingCount="0" stopTime="0.00" timeLoss="4.06" rerouteNo="0" devices="tripinfo_205" vType="DEFAULT_VEHTYPE" speedFactor="0.89" vaporized=""/>
    <tripinfo id="183" depart="183.00" departLane="1106761378#1_0" departPos="5.10" departSpeed="0.00" departDelay="0.00" arrival="237.00" arrivalLane="32637818#0_0" arrivalPos="95.79" arrivalSpeed="14.33" duration="54.00" routeLength="569.44" waitingTime="0.00" waitingCount="0" stopTime="0.00" timeLoss="13.93" rerouteNo="0" devices="tripinfo_183" vType="DEFAULT_VEHTYPE" speedFactor="1.06" vaporized=""/>
    <tripinfo id="50" depart="50.00" departLane="-1205847086_0" departPos="5.10" departSpeed="0.00" departDelay="0.00" arrival="238.00" arrivalLane="327231751#1_0" arrivalPos="21.57" arrivalSpeed="8.65" duration="188.00" routeLength="1363.03" waitingTime="35.00" waitingCount="5" stopTime="0.00" timeLoss="80.72" rerouteNo="0" devices="tripinfo_50" vType="DEFAULT_VEHTYPE" speedFactor="1.04" vaporized=""/>