<?xml version="1.0" encoding="UTF-8"?>

<!-- generated on 2025-08-17 17:35:15 by Eclipse SUMO sumo Version 1.21.0
<sumoConfiguration xmlns:xsi="http://www.w3.org/2001/XMLSchema-instance" xsi:noNamespaceSchemaLocation="http://sumo.dlr.de/xsd/sumoConfiguration.xsd">

    <input>
        <net-file value="sumo_files\city.net.xml"/>
        <route-files value="sumo_files\city.rou.xml"/>
        <additional-files value="sumo_files\city.add.xml"/>
        <junction-taz value="true"/>
    </input>

    <output>
        <tripinfo-output value="sumo_files\tripinfo.xml"/>
    </output>

    <time>
        <begin value="0"/>
    </time>

    <report>
        <no-warnings value="true"/>
        <no-step-log value="true"/>
    </report>

    <traci_server>
        <remote-port value="56285"/>
    </traci_server>

</sumoConfiguration>
-->

<tripinfos xmlns:xsi="http://www.w3.org/2001/XMLSchema-instance" xsi:noNamespaceSchemaLocation="http://sumo.dlr.de/xsd/tripinfo_file.xsd">
    <tripinfo id="flow_6.0" depart="0.00" departLane="edge_2-1_0" departPos="5.10" departSpeed="0.00" departDelay="0.00" arrival="10.00" arrivalLane="edge_2-1_0" arrivalPos="83.20" arrivalSpeed="14.35" duration="10.00" routeLength="78.10" waitingTime="0.00" waitingCount="0" stopTime="0.00" timeLoss="3.77" rerouteNo="1" devices="tripinfo_flow_6.0 routing_flow_6.0" vType="car" speedFactor="1.05" vaporized=""/>
    <tripinfo id="flow_4.0" depart="0.00" departLane="edge_12-16_0" departPos="5.10" departSpeed="0.00" departDelay="0.00" arrival="18.00" arrivalLane="edge_16-15_0" arrivalPos="83.20" arrivalSpeed="13.62" duration="18.00" routeLength="163.88" waitingTime="0.00" waitingCount="0" stopTime="0.00" timeLoss="6.02" rerouteNo="1" devices="tripinfo_flow_4.0 routing_flow_4.0" vType="car" speedFactor="1.03" vaporized=""/>
    <tripinfo id="flow_3.0" depart="0.00" departLane="edge_2-3_0" departPos="5.10" departSpeed="0.00" departDelay="0.00" arrival="33.00" arrivalLane="edge_8-12_0" arrivalPos="79.20" arrivalSpeed="14.46" duration="33.00" routeLength="363.88" waitingTime="0.00" waitingCount="0" stopTime="0.00" timeLoss="7.26" rerouteNo="1" devices="tripinfo_flow_3.0 routing_flow_3.0" vType="car" speedFactor="1.08" vaporized=""/>
    <tripinfo id="flow_2.0" depart="0.00" departLane="edge_5-1_0" departPos="5.10" departSpeed="0.00" departDelay="0.00" arrival="34.00" arrivalLane="edge_3-4_0" arrivalPos="83.20" arrivalSpeed="14.01" duration="34.00" routeLength="367.88" waitingTime="0.00" waitingCount="0" stopTime="0.00" timeLoss="7.52" rerouteNo="1" devices="tripinfo_flow_2.0 routing_flow_2.0" vType="car" speedFactor="1.01" vaporized=""/>
    <tripinfo id="flow_7.0" depart="0.00" departLane="edge_3-4_0" departPos="5.10" departSpeed="0.00" departDelay="0.00" arrival="38.00" arrivalLane="edge_12-16_0" arrivalPos="83.20" arrivalSpeed="11.81" duration="38.00" routeLength="367.88" waitingTime="0.00" waitingCount="0" stopTime="0.00" timeLoss="7.43" rerouteNo="1" devices="tripinfo_flow_7.0 routing_flow_7.0" vType="car" speedFactor="0.89" vaporized=""/>
    <tripinfo id="flow_6.1" depart="30.00" departLane="edge_2-1_0" departPos="5.10" departSpeed="0.00" departDelay="0.00" arrival="40.00" arrivalLane="edge_2-1_0" arrivalPos="83.20" arrivalSpeed="10.93" duration="10.00" routeLength="78.10" waitingTime="0.00" waitingCount="0" stopTime="0.00" timeLoss="3.28" rerouteNo="1" devices="tripinfo_flow_6.1 routing_flow_6.1" vType="car" speedFactor="0.88" vaporized=""/>
    <tripinfo id="flow_1.0" depart="0.00" departLane="edge_5-9_0" departPos="5.10" departSpeed="0.00" departDelay="0.00" arrival="44.00" arrivalLane="edge_15-16_0" arrivalPos="83.20" arrivalSpeed="11.79" duration="44.00" routeLength="483.36" waitingTime="0.00" waitingCount="0" stopTime="0.00" timeLoss="5.52" rerouteNo="1" devices="tripinfo_flow_1.0 routing_flow_1.0" vType="car" speedFactor="0.94" vaporized=""/>
    <tripinfo id="flow_8.0" depart="0.00" departLane="edge_15-14_0" departPos="5.10" departSpeed="0.00" departDelay="0.00" arrival="44.00" arrivalLane="edge_5-1_0" arrivalPos="83.20" arrivalSpeed="12.72" duration="44.00" routeLength="467.88" waitingTime="0.00" waitingCount="0" stopTime="0.00" timeLoss="6.71" rerouteNo="1" devices="tripinfo_flow_8.0 routing_flow_8.0" vType="car" speedFactor="0.94" vaporized=""/>
    <tripinfo id="flow_0.0" depart="0.00" departLane="edge_9-10_0" departPos="5.10" departSpeed="0.00" departDelay="0.00" arrival="46.00" arrivalLane="edge_11-15_0" arrivalPos="79.20" arrivalSpeed="13.76" duration="46.00" routeLength="262.33" waitingTime="18.00" waitingCount="1" stopTime="0.00" timeLoss="26.70" rerouteNo="1" devices="tripinfo_flow_0.0 routing_flow_0.0" vType="car" speedFactor="1.06" vaporized=""/>
    <tripinfo id="flow_5.0" depart="3.00" departLane="edge_5-9_0" departPos="5.10" departSpeed="0.00" departDelay="3.00" arrival="52.00" arrivalLane="edge_15-16_0" arrivalPos="83.20" arrivalSpeed="10.72" duration="49.00" routeLength="483.36" waitingTime="0.00" waitingCount="0" stopTime="0.00" timeLoss="5.89" rerouteNo="1" devices="tripinfo_flow_5.0 routing_flow_5.0" vType="car" speedFactor="0.83" vaporized=""/>
    <tripinfo id="flow_4.1" depart="33.00" departLane="edge_12-16_0" departPos="5.10" departSpeed="0.00" departDelay="3.00" arrival="52.00" arrivalLane="edge_16-15_0" arrivalPos="83.20" arrivalSpeed="12.63" duration="19.00" routeLength="163.88" waitingTime="0.00" waitingCount="0" stopTime="0.00" timeLoss="6.88" rerouteNo="1" devices="tripinfo_flow_4.1 routing_flow_4.1" vType="car" speedFactor="0.99" vaporized=""/>
    <tripinfo id="flow_0.1" depart="30.00" departLane="edge_9-10_0" departPos="5.10" departSpeed="0.00" departDelay="0.00" arrival="54.00" arrivalLane="edge_11-15_0" arrivalPos="79.20" arrivalSpeed="14.56" duration="24.00" routeLength="262.33" waitingTime="0.00" waitingCount="0" stopTime="0.00" timeLoss="5.56" rerouteNo="1" devices="tripinfo_flow_0.1 routing_flow_0.1" vType="car" speedFactor="1.09" vaporized=""/>
    <tripinfo id="flow_9.0" depart="0.00" departLane="edge_1-2_0" departPos="5.10" departSpeed="0.00" departDelay="0.00" arrival="56.00" arrivalLane="edge_12-16_0" arrivalPos="83.20" arrivalSpeed="10.70" duration="56.00" routeLength="571.88" waitingTime="0.00" waitingCount="0" stopTime="0.00" timeLoss="7.94" rerouteNo="1" devices="tripinfo_flow_9.0 routing_flow_9.0" vType="car" speedFactor="0.86" vaporized=""/>
    <tripinfo id="flow_3.1" depart="30.00" departLane="edge_2-3_0" departPos="5.10" departSpeed="0.00" departDelay="0.00" arrival="63.00" arrivalLane="edge_8-12_0" arrivalPos="79.20" arrivalSpeed="15.37" duration="33.00" routeLength="363.88" waitingTime="0.00" waitingCount="0" stopTime="0.00" timeLoss="8.97" rerouteNo="1" devices="tripinfo_flow_3.1 routing_flow_3.1" vType="car" speedFactor="1.12" vaporized=""/>
    <tripinfo id="flow_2.1" depart="30.00" departLane="edge_5-1_0" departPos="5.10" departSpeed="0.00" departDelay="0.00" arrival="64.00" arrivalLane="edge_3-4_0" arrivalPos="83.20" arrivalSpeed="13.86" duration="34.00" routeLength="367.88" waitingTime="0.00" waitingCount="0" stopTime="0.00" timeLoss="7.27" rerouteNo="1" devices="tripinfo_flow_2.1 routing_flow_2.1" vType="car" speedFactor="1.05" vaporized=""/>
    <tripinfo id="flow_7.1" depart="30.00" departLane="edge_3-4_0" departPos="5.10" departSpeed="0.00" departDelay="0.00" arrival="67.00" arrivalLane="edge_12-16_0" arrivalPos="83.20" arrivalSpeed="12.50" duration="37.00" routeLength="367.88" waitingTime="0.00" waitingCount="0" stopTime="0.00" timeLoss="7.63" rerouteNo="1" devices="tripinfo_flow_7.1 routing_flow_7.1" vType="car" speedFactor="0.94" vaporized=""/>
    <tripinfo id="flow_6.2" depart="60.00" departLane="edge_2-1_0" departPos="5.10" departSpeed="0.00" departDelay="0.00" arrival="69.00" arrivalLane="edge_2-1_0" arrivalPos="83.20" arrivalSpeed="12.59" duration="9.00" routeLength="78.10" waitingTime="0.00" waitingCount="0" stopTime="0.00" timeLoss="2.82" rerouteNo="1" devices="tripinfo_flow_6.2 routing_flow_6.2" vType="car" speedFactor="0.92" vaporized=""/>
    <tripinfo id="flow_5.1" depart="30.00" departLane="edge_5-9_0" departPos="5.10" departSpeed="0.00" departDelay="0.00" arrival="74.00" arrivalLane="edge_15-16_0" arrivalPos="83.20" arrivalSpeed="12.32" duration="44.00" routeLength="483.36" waitingTime="0.00" waitingCount="0" stopTime="0.00" timeLoss="5.09" rerouteNo="1" devices="tripinfo_flow_5.1 routing_flow_5.1" vType="car" speedFactor="0.93" vaporized=""/>
    <tripinfo id="flow_8.1" depart="30.00" departLane="edge_15-14_0" departPos="5.10" departSpeed="0.00" departDelay="0.00" arrival="75.00" arrivalLane="edge_5-1_0" arrivalPos="83.20" arrivalSpeed="12.01" duration="45.00" routeLength="467.88" waitingTime="0.00" waitingCount="0" stopTime="0.00" timeLoss="7.67" rerouteNo="1" devices="tripinfo_flow_8.1 routing_flow_8.1" vType="car" speedFactor="0.94" vaporized=""/>
    <tripinfo id="flow_9.1" depart="30.00" departLane="edge_1-2_0" departPos="5.10" departSpeed="0.00" departDelay="0.00" arrival="76.00" arrivalLane="edge_12-16_0" arrivalPos="83.20" arrivalSpeed="14.86" duration="46.00" routeLength="571.88" waitingTime="0.00" waitingCount="0" stopTime="0.00" timeLoss="8.94" rerouteNo="1" devices="tripinfo_flow_9.1 routing_flow_9.1" vType="car" speedFactor="1.16" vaporized=""/>
    <tripinfo id="flow_4.2" depart="61.00" departLane="edge_12-16_0" departPos="5.10" departSpeed="0.00" departDelay="1.00" arrival="82.00" arrivalLane="edge_16-15_0" arrivalPos="83.20" arrivalSpeed="10.61" duration="21.00" routeLength="163.88" waitingTime="0.00" waitingCount="0" stopTime="0.00" timeLoss="5.89" rerouteNo="1" devices="tripinfo_flow_4.2 routing_flow_4.2" vType="car" speedFactor="0.83" vaporized=""/>
    <tripinfo id="flow_0.2" depart="60.00" departLane="edge_9-10_0" departPos="5.10" departSpeed="0.00" departDelay="0.00" arrival="85.00" arrivalLane="edge_11-15_0" arrivalPos="79.20" arrivalSpeed="14.08" duration="25.00" routeLength="262.33" waitingTime="0.00" waitingCount="0" stopTime="0.00" timeLoss="5.43" rerouteNo="1" devices="tripinfo_flow_0.2 routing_flow_0.2" vType="car" speedFactor="1.02" vaporized=""/>
    <tripinfo id="flow_2.2" depart="60.00" departLane="edge_5-1_0" departPos="5.10" departSpeed="0.00" departDelay="0.00" arrival="94.00" arrivalLane="edge_3-4_0" arrivalPos="83.20" arrivalSpeed="13.22" duration="34.00" routeLength="367.88" waitingTime="0.00" waitingCount="0" stopTime="0.00" timeLoss="6.50" rerouteNo="1" devices="tripinfo_flow_2.2 routing_flow_2.2" vType="car" speedFactor="0.97" vaporized=""/>
    <tripinfo id="flow_3.2" depart="60.00" departLane="edge_2-3_0" departPos="5.10" departSpeed="0.00" departDelay="0.00" arrival="97.00" arrivalLane="edge_8-12_0" arrivalPos="79.20" arrivalSpeed="11.99" duration="37.00" routeLength="363.88" waitingTime="0.00" waitingCount="0" stopTime="0.00" timeLoss="6.85" rerouteNo="1" devices="tripinfo_flow_3.2 routing_flow_3.2" vType="car" speedFactor="0.89" vaporized=""/>
    <tripinfo id="flow_7.2" depart="60.00" departLane="edge_3-4_0" departPos="5.10" departSpeed="0.00" departDelay="0.00" arrival="97.00" arrivalLane="edge_12-16_0" arrivalPos="83.20" arrivalSpeed="12.67" duration="37.00" routeLength="367.88" waitingTime="0.00" waitingCount="0" stopTime="0.00" timeLoss="8.00" rerouteNo="1" devices="tripinfo_flow_7.2 routing_flow_7.2" vType="car" speedFactor="0.95" vaporized=""/>
    <tripinfo id="flow_6.3" depart="90.00" departLane="edge_2-1_0" departPos="5.10" departSpeed="0.00" departDelay="0.00" arrival="99.00" arrivalLane="edge_2-1_0" arrivalPos="83.20" arrivalSpeed="13.19" duration="9.00" routeLength="78.10" waitingTime="0.00" waitingCount="0" stopTime="0.00" timeLoss="2.86" rerouteNo="1" devices="tripinfo_flow_6.3 routing_flow_6.3" vType="car" speedFactor="0.97" vaporized=""/>
    <tripinfo id="flow_1.2" depart="60.00" departLane="edge_5-9_0" departPos="5.10" departSpeed="0.00" departDelay="0.00" arrival="101.00" arrivalLane="edge_15-16_0" arrivalPos="83.20" arrivalSpeed="13.53" duration="41.00" routeLength="483.36" waitingTime="0.00" waitingCount="0" stopTime="0.00" timeLoss="5.55" rerouteNo="1" devices="tripinfo_flow_1.2 routing_flow_1.2" vType="car" speedFactor="1.01" vaporized=""/>
    <tripinfo id="flow_8.2" depart="60.00" departLane="edge_15-14_0" departPos="5.10" departSpeed="0.00" departDelay="0.00" arrival="103.00" arrivalLane="edge_5-1_0" arrivalPos="83.20" arrivalSpeed="4.47" duration="43.00" routeLength="467.88" waitingTime="0.00" waitingCount="0" stopTime="0.00" timeLoss="13.24" rerouteNo="1" devices="tripinfo_flow_8.2 routing_flow_8.2" vType="car" speedFactor="1.13" vaporized=""/>
    <tripinfo id="flow_5.2" depart="63.00" departLane="edge_5-9_0" departPos="5.10" departSpeed="0.00" departDelay="3.00" arrival="109.00" arrivalLane="edge_15-16_0" arrivalPos="83.20" arrivalSpeed="11.98" duration="46.00" routeLength="483.36" waitingTime="0.00" waitingCount="0" stopTime="0.00" timeLoss="5.44" rerouteNo="1" devices="tripinfo_flow_5.2 routing_flow_5.2" vType="car" speedFactor="0.87" vaporized=""/>
    <tripinfo id="flow_4.3" depart="91.00" departLane="edge_12-16_0" departPos="5.10" departSpeed="0.00" departDelay="1.00" arrival="111.00" arrivalLane="edge_16-15_0" arrivalPos="83.20" arrivalSpeed="12.71" duration="20.00" routeLength="163.88" waitingTime="0.00" waitingCount="0" stopTime="0.00" timeLoss="6.96" rerouteNo="1" devices="tripinfo_flow_4.3 routing_flow_4.3" vType="car" speedFactor="0.99" vaporized=""/>
    <tripinfo id="flow_9.2" depart="60.00" departLane="edge_1-2_0" departPos="5.10" departSpeed="0.00" departDelay="0.00" arrival="114.00" arrivalLane="edge_12-16_0" arrivalPos="83.20" arrivalSpeed="12.16" duration="54.00" routeLength="571.88" waitingTime="0.00" waitingCount="0" stopTime="0.00" timeLoss="8.95" rerouteNo="1" devices="tripinfo_flow_9.2 routing_flow_9.2" vType="car" speedFactor="0.93" vaporized=""/>
    <tripinfo id="flow_0.3" depart="90.00" departLane="edge_9-10_0" departPos="5.10" departSpeed="0.00" departDelay="0.00" arrival="116.00" arrivalLane="edge_11-15_0" arrivalPos="79.20" arrivalSpeed="15.22" duration="26.00" routeLength="262.33" waitingTime="0.00" waitingCount="0" stopTime="0.00" timeLoss="9.44" rerouteNo="1" devices="tripinfo_flow_0.3 routing_flow_0.3" vType="car" speedFactor="1.18" vaporized=""/>
    <tripinfo id="flow_1.1" depart="30.00" departLane="edge_5-6_0" departPos="5.10" departSpeed="0.00" departDelay="0.00" arrival="117.00" arrivalLane="edge_12-16_0" arrivalPos="83.20" arrivalSpeed="13.91" duration="87.00" routeLength="466.33" waitingTime="36.00" waitingCount="1" stopTime="0.00" timeLoss="53.30" rerouteNo="1" devices="tripinfo_flow_1.1 routing_flow_1.1" vType="car" speedFactor="1.03" vaporized=""/>
    <tripinfo id="flow_7.3" depart="90.00" departLane="edge_3-4_0" departPos="5.10" departSpeed="0.00" departDelay="0.00" arrival="120.00" arrivalLane="edge_12-16_0" arrivalPos="83.20" arrivalSpeed="15.47" duration="30.00" routeLength="367.88" waitingTime="0.00" waitingCount="0" stopTime="0.00" timeLoss="7.47" rerouteNo="1" devices="tripinfo_flow_7.3 routing_flow_7.3" vType="car" speedFactor="1.18" vaporized=""/>
    <tripinfo id="flow_3.3" depart="90.00" departLane="edge_2-3_0" departPos="5.10" departSpeed="0.00" departDelay="0.00" arrival="122.00" arrivalLane="edge_8-12_0" arrivalPos="79.20" arrivalSpeed="15.59" duration="32.00" routeLength="363.88" waitingTime="0.00" waitingCount="0" stopTime="0.00" timeLoss="8.27" rerouteNo="1" devices="tripinfo_flow_3.3 routing_flow_3.3" vType="car" speedFactor="1.17" vaporized=""/>
    <tripinfo id="flow_2.3" depart="90.00" departLane="edge_5-1_0" departPos="5.10" departSpeed="0.00" departDelay="0.00" arrival="124.00" arrivalLane="edge_3-4_0" arrivalPos="83.20" arrivalSpeed="12.94" duration="34.00" routeLength="367.88" waitingTime="0.00" waitingCount="0" stopTime="0.00" timeLoss="6.87" rerouteNo="1" devices="tripinfo_flow_2.3 routing_flow_2.3" vType="car" speedFactor="1.01" vaporized=""/>
    <tripinfo id="flow_6.4" depart="120.00" departLane="edge_2-1_0" departPos="5.10" departSpeed="0.00" departDelay="0.00" arrival="129.00" arrivalLane="edge_2-1_0" arrivalPos="83.20" arrivalSpeed="13.55" duration="9.00" routeLength="78.10" waitingTime="0.00" waitingCount="0" stopTime="0.00" timeLoss="3.14" rerouteNo="1" devices="tripinfo_flow_6.4 routing_flow_6.4" vType="car" speedFactor="1.00" vaporized=""/>
    <tripinfo id="flow_5.3" depart="90.00" departLane="edge_5-9_0" departPos="5.10" departSpeed="0.00" departDelay="0.00" arrival="131.00" arrivalLane="edge_15-16_0" arrivalPos="83.20" arrivalSpeed="13.39" duration="41.00" routeLength="483.36" waitingTime="0.00" waitingCount="0" stopTime="0.00" timeLoss="5.33" rerouteNo="1" devices="tripinfo_flow_5.3 routing_flow_5.3" vType="car" speedFactor="1.02" vaporized=""/>
    <tripinfo id="flow_8.3" depart="90.00" departLane="edge_15-14_0" departPos="5.10" departSpeed="0.00" departDelay="0.00" arrival="133.00" arrivalLane="edge_5-1_0" arrivalPos="83.20" arrivalSpeed="7.10" duration="43.00" routeLength="467.88" waitingTime="0.00" waitingCount="0" stopTime="0.00" timeLoss="11.67" rerouteNo="1" devices="tripinfo_flow_8.3 routing_flow_8.3" vType="car" speedFactor="1.10" vaporized=""/>
    <tripinfo id="flow_4.4" depart="120.00" departLane="edge_12-16_0" departPos="5.10" departSpeed="0.00" departDelay="0.00" arrival="139.00" arrivalLane="edge_16-15_0" arrivalPos="83.20" arrivalSpeed="14.05" duration="19.00" routeLength="163.88" waitingTime="0.00" waitingCount="0" stopTime="0.00" timeLoss="6.48" rerouteNo="1" devices="tripinfo_flow_4.4 routing_flow_4.4" vType="car" speedFactor="1.04" vaporized=""/>
    <tripinfo id="flow_9.3" depart="90.00" departLane="edge_1-2_0" departPos="5.10" departSpeed="0.00" departDelay="0.00" arrival="144.00" arrivalLane="edge_12-16_0" arrivalPos="83.20" arrivalSpeed="11.52" duration="54.00" routeLength="571.88" waitingTime="0.00" waitingCount="0" stopTime="0.00" timeLoss="7.50" rerouteNo="1" devices="tripinfo_flow_9.3 routing_flow_9.3" vType="car" speedFactor="0.90" vaporized=""/>
    <tripinfo id="flow_0.4" depart="120.00" departLane="edge_9-10_0" departPos="5.10" departSpeed="0.00" departDelay="0.00" arrival="153.00" arrivalLane="edge_11-15_0" arrivalPos="79.20" arrivalSpeed="14.11" duration="33.00" routeLength="262.33" waitingTime="5.00" waitingCount="1" stopTime="0.00" timeLoss="13.92" rerouteNo="1" devices="tripinfo_flow_0.4 routing_flow_0.4" vType="car" speedFactor="1.03" vaporized=""/>
    <tripinfo id="flow_2.4" depart="120.00" departLane="edge_5-1_0" departPos="5.10" departSpeed="0.00" departDelay="0.00" arrival="153.00" arrivalLane="edge_3-4_0" arrivalPos="83.20" arrivalSpeed="14.36" duration="33.00" routeLength="367.88" waitingTime="0.00" waitingCount="0" stopTime="0.00" timeLoss="8.06" rerouteNo="1" devices="tripinfo_flow_2.4 routing_flow_2.4" vType="car" speedFactor="1.09" vaporized=""/>
    <tripinfo id="flow_3.4" depart="120.00" departLane="edge_2-3_0" departPos="5.10" departSpeed="0.00" departDelay="0.00" arrival="154.00" arrivalLane="edge_8-12_0" arrivalPos="79.20" arrivalSpeed="14.29" duration="34.00" routeLength="363.88" waitingTime="0.00" waitingCount="0" stopTime="0.00" timeLoss="7.94" rerouteNo="1" devices="tripinfo_flow_3.4 routing_flow_3.4" vType="car" speedFactor="1.04" vaporized=""/>
    <tripinfo id="flow_7.4" depart="120.00" departLane="edge_3-4_0" departPos="5.10" departSpeed="0.00" departDelay="0.00" arrival="159.00" arrivalLane="edge_12-16_0" arrivalPos="83.20" arrivalSpeed="11.38" duration="39.00" routeLength="367.88" waitingTime="0.00" waitingCount="0" stopTime="0.00" timeLoss="8.65" rerouteNo="1" devices="tripinfo_flow_7.4 routing_flow_7.4" vType="car" speedFactor="0.90" vaporized=""/>
    <tripinfo id="flow_6.5" depart="150.00" departLane="edge_2-1_0" departPos="5.10" departSpeed="0.00" departDelay="0.00" arrival="159.00" arrivalLane="edge_2-1_0" arrivalPos="83.20" arrivalSpeed="12.15" duration="9.00" routeLength="78.10" waitingTime="0.00" waitingCount="0" stopTime="0.00" timeLoss="2.59" rerouteNo="1" devices="tripinfo_flow_6.5 routing_flow_6.5" vType="car" speedFactor="0.90" vaporized=""/>
    <tripinfo id="flow_5.4" depart="123.00" departLane="edge_5-9_0" departPos="5.10" departSpeed="0.00" departDelay="3.00" arrival="162.00" arrivalLane="edge_15-16_1" arrivalPos="83.20" arrivalSpeed="14.96" duration="39.00" routeLength="478.20" waitingTime="0.00" waitingCount="0" stopTime="0.00" timeLoss="6.71" rerouteNo="1" devices="tripinfo_flow_5.4 routing_flow_5.4" vType="car" speedFactor="1.09" vaporized=""/>
    <tripinfo id="flow_1.4" depart="120.00" departLane="edge_5-9_0" departPos="5.10" departSpeed="0.00" departDelay="0.00" arrival="163.00" arrivalLane="edge_15-16_0" arrivalPos="83.20" arrivalSpeed="13.11" duration="43.00" routeLength="483.36" waitingTime="0.00" waitingCount="0" stopTime="0.00" timeLoss="5.42" rerouteNo="1" devices="tripinfo_flow_1.4 routing_flow_1.4" vType="car" speedFactor="0.96" vaporized=""/>
    <tripinfo id="flow_8.4" depart="120.00" departLane="edge_15-14_0" departPos="5.10" departSpeed="0.00" departDelay="0.00" arrival="167.00" arrivalLane="edge_5-1_0" arrivalPos="83.20" arrivalSpeed="11.25" duration="47.00" routeLength="467.88" waitingTime="0.00" waitingCount="0" stopTime="0.00" timeLoss="8.25" rerouteNo="1" devices="tripinfo_flow_8.4 routing_flow_8.4" vType="car" speedFactor="0.88" vaporized=""/>
    <tripinfo id="flow_4.5" depart="154.00" departLane="edge_12-16_0" departPos="5.10" departSpeed="0.00" departDelay="4.00" arrival="173.00" arrivalLane="edge_16-15_0" arrivalPos="83.20" arrivalSpeed="13.86" duration="19.00" routeLength="163.88" waitingTime="0.00" waitingCount="0" stopTime="0.00" timeLoss="6.33" rerouteNo="1" devices="tripinfo_flow_4.5 routing_flow_4.5" vType="car" speedFactor="1.00" vaporized=""/>
    <tripinfo id="flow_9.4" depart="120.00" departLane="edge_1-2_0" departPos="5.10" departSpeed="0.00" departDelay="0.00" arrival="179.00" arrivalLane="edge_12-16_0" arrivalPos="83.20" arrivalSpeed="11.22" duration="59.00" routeLength="571.88" waitingTime="0.00" waitingCount="0" stopTime="0.00" timeLoss="9.05" rerouteNo="1" devices="tripinfo_flow_9.4 routing_flow_9.4" vType="car" speedFactor="0.85" vaporized=""/>
    <tripinfo id="flow_7.5" depart="150.00" departLane="edge_3-4_0" departPos="5.10" departSpeed="0.00" departDelay="0.00" arrival="181.00" arrivalLane="edge_12-16_0" arrivalPos="83.20" arrivalSpeed="15.02" duration="31.00" routeLength="367.88" waitingTime="0.00" waitingCount="0" stopTime="0.00" timeLoss="7.66" rerouteNo="1" devices="tripinfo_flow_7.5 routing_flow_7.5" vType="car" speedFactor="1.14" vaporized=""/>
    <tripinfo id="flow_3.5" depart="150.00" departLane="edge_2-3_0" departPos="5.10" departSpeed="0.00" departDelay="0.00" arrival="182.00" arrivalLane="edge_8-12_0" arrivalPos="79.20" arrivalSpeed="13.98" duration="32.00" routeLength="363.88" waitingTime="0.00" waitingCount="0" stopTime="0.00" timeLoss="7.36" rerouteNo="1" devices="tripinfo_flow_3.5 routing_flow_3.5" vType="car" speedFactor="1.10" vaporized=""/>
    <tripinfo id="flow_2.5" depart="150.00" departLane="edge_5-1_0" departPos="5.10" departSpeed="0.00" departDelay="0.00" arrival="183.00" arrivalLane="edge_3-4_0" arrivalPos="83.20" arrivalSpeed="13.36" duration="33.00" routeLength="367.88" waitingTime="0.00" waitingCount="0" stopTime="0.00" timeLoss="6.79" rerouteNo="1" devices="tripinfo_flow_2.5 routing_flow_2.5" vType="car" speedFactor="1.02" vaporized=""/>
    <tripinfo id="flow_1.5" depart="150.00" departLane="edge_5-9_0" departPos="5.10" departSpeed="0.00" departDelay="0.00" arrival="187.00" arrivalLane="edge_15-16_0" arrivalPos="83.20" arrivalSpeed="16.18" duration="37.00" routeLength="483.36" waitingTime="0.00" waitingCount="0" stopTime="0.00" timeLoss="5.95" rerouteNo="1" devices="tripinfo_flow_1.5 routing_flow_1.5" vType="car" speedFactor="1.17" vaporized=""/>
    <tripinfo id="flow_0.5" depart="150.00" departLane="edge_9-10_0" departPos="5.10" departSpeed="0.00" departDelay="0.00" arrival="190.00" arrivalLane="edge_11-15_0" arrivalPos="79.20" arrivalSpeed="10.62" duration="40.00" routeLength="262.33" waitingTime="8.00" waitingCount="1" stopTime="0.00" timeLoss="17.12" rerouteNo="1" devices="tripinfo_flow_0.5 routing_flow_0.5" vType="car" speedFactor="0.85" vaporized=""/>
    <tripinfo id="flow_6.6" depart="180.00" departLane="edge_2-1_0" departPos="5.10" departSpeed="0.00" departDelay="0.00" arrival="190.00" arrivalLane="edge_2-1_0" arrivalPos="83.20" arrivalSpeed="11.42" duration="10.00" routeLength="78.10" waitingTime="0.00" waitingCount="0" stopTime="0.00" timeLoss="3.07" rerouteNo="1" devices="tripinfo_flow_6.6 routing_flow_6.6" vType="car" speedFactor="0.91" vaporized=""/>
    <tripinfo id="flow_5.5" depart="153.00" departLane="edge_5-9_0" departPos="5.10" departSpeed="0.00" departDelay="3.00" arrival="194.00" arrivalLane="edge_15-16_0" arrivalPos="83.20" arrivalSpeed="12.84" duration="41.00" routeLength="483.36" waitingTime="0.00" waitingCount="0" stopTime="0.00" timeLoss="5.19" rerouteNo="1" devices="tripinfo_flow_5.5 routing_flow_5.5" vType="car" speedFactor="1.00" vaporized=""/>
    <tripinfo id="flow_8.5" depart="150.00" departLane="edge_15-14_0" departPos="5.10" departSpeed="0.00" departDelay="0.00" arrival="194.00" arrivalLane="edge_5-1_0" arrivalPos="83.20" arrivalSpeed="6.07" duration="44.00" routeLength="467.88" waitingTime="0.00" waitingCount="0" stopTime="0.00" timeLoss="10.75" rerouteNo="1" devices="tripinfo_flow_8.5 routing_flow_8.5" vType="car" speedFactor="1.02" vaporized=""/>
    <tripinfo id="flow_4.6" depart="180.00" departLane="edge_12-16_0" departPos="5.10" departSpeed="0.00" departDelay="0.00" arrival="199.00" arrivalLane="edge_16-15_0" arrivalPos="83.20" arrivalSpeed="12.12" duration="19.00" routeLength="163.88" waitingTime="0.00" waitingCount="0" stopTime="0.00" timeLoss="5.54" rerouteNo="1" devices="tripinfo_flow_4.6 routing_flow_4.6" vType="car" speedFactor="0.94" vaporized=""/>
    <tripinfo id="flow_9.5" depart="150.00" departLane="edge_1-5_0" departPos="5.10" departSpeed="0.00" departDelay="0.00" arrival="200.00" arrivalLane="edge_15-16_0" arrivalPos="83.20" arrivalSpeed="13.27" duration="50.00" routeLength="587.36" waitingTime="0.00" waitingCount="0" stopTime="0.00" timeLoss="5.20" rerouteNo="1" devices="tripinfo_flow_9.5 routing_flow_9.5" vType="car" speedFactor="0.97" vaporized=""/>
    <tripinfo id="flow_2.6" depart="180.00" departLane="edge_5-1_0" departPos="5.10" departSpeed="0.00" departDelay="0.00" arrival="214.00" arrivalLane="edge_3-4_0" arrivalPos="83.20" arrivalSpeed="13.36" duration="34.00" routeLength="367.88" waitingTime="0.00" waitingCount="0" stopTime="0.00" timeLoss="7.09" rerouteNo="1" devices="tripinfo_flow_2.6 routing_flow_2.6" vType="car" speedFactor="1.02" vaporized=""/>
    <tripinfo id="flow_3.6" depart="180.00" departLane="edge_2-3_0" departPos="5.10" departSpeed="0.00" departDelay="0.00" arrival="215.00" arrivalLane="edge_8-12_0" arrivalPos="79.20" arrivalSpeed="13.11" duration="35.00" routeLength="363.88" waitingTime="0.00" waitingCount="0" stopTime="0.00" timeLoss="7.26" rerouteNo="1" devices="tripinfo_flow_3.6 routing_flow_3.6" vType="car" speedFactor="0.99" vaporized=""/>
    <tripinfo id="flow_7.6" depart="180.00" departLane="edge_3-4_0" departPos="5.10" departSpeed="0.00" departDelay="0.00" arrival="217.00" arrivalLane="edge_12-16_0" arrivalPos="83.20" arrivalSpeed="11.61" duration="37.00" routeLength="367.88" waitingTime="0.00" waitingCount="0" stopTime="0.00" timeLoss="7.01" rerouteNo="1" devices="tripinfo_flow_7.6 routing_flow_7.6" vType="car" speedFactor="0.91" vaporized=""/>
    <tripinfo id="flow_1.6" depart="180.00" departLane="edge_5-9_0" departPos="5.10" departSpeed="0.00" departDelay="0.00" arrival="218.00" arrivalLane="edge_15-16_0" arrivalPos="83.20" arrivalSpeed="15.04" duration="38.00" routeLength="483.36" waitingTime="0.00" waitingCount="0" stopTime="0.00" timeLoss="5.87" rerouteNo="1" devices="tripinfo_flow_1.6 routing_flow_1.6" vType="car" speedFactor="1.12" vaporized=""/>
    <tripinfo id="flow_6.7" depart="210.00" departLane="edge_2-1_0" departPos="5.10" departSpeed="0.00" departDelay="0.00" arrival="220.00" arrivalLane="edge_2-1_0" arrivalPos="83.20" arrivalSpeed="13.27" duration="10.00" routeLength="78.10" waitingTime="0.00" waitingCount="0" stopTime="0.00" timeLoss="3.66" rerouteNo="1" devices="tripinfo_flow_6.7 routing_flow_6.7" vType="car" speedFactor="1.03" vaporized=""/>
    <tripinfo id="flow_8.6" depart="180.00" departLane="edge_15-14_0" departPos="5.10" departSpeed="0.00" departDelay="0.00" arrival="223.00" arrivalLane="edge_5-1_0" arrivalPos="83.20" arrivalSpeed="6.23" duration="43.00" routeLength="467.88" waitingTime="0.00" waitingCount="0" stopTime="0.00" timeLoss="10.55" rerouteNo="1" devices="tripinfo_flow_8.6 routing_flow_8.6" vType="car" speedFactor="1.04" vaporized=""/>
    <tripinfo id="flow_0.6" depart="180.00" departLane="edge_9-10_0" departPos="5.10" departSpeed="0.00" departDelay="0.00" arrival="225.00" arrivalLane="edge_11-15_0" arrivalPos="79.20" arrivalSpeed="14.92" duration="45.00" routeLength="262.33" waitingTime="11.00" waitingCount="1" stopTime="0.00" timeLoss="26.24" rerouteNo="1" devices="tripinfo_flow_0.6 routing_flow_0.6" vType="car" speedFactor="1.08" vaporized=""/>
    <tripinfo id="flow_9.6" depart="180.00" departLane="edge_1-5_0" departPos="5.10" departSpeed="0.00" departDelay="0.00" arrival="228.00" arrivalLane="edge_15-16_1" arrivalPos="83.20" arrivalSpeed="13.87" duration="48.00" routeLength="582.20" waitingTime="0.00" waitingCount="0" stopTime="0.00" timeLoss="6.03" rerouteNo="1" devices="tripinfo_flow_9.6 routing_flow_9.6" vType="car" speedFactor="1.02" vaporized=""/>