<?xml version="1.0" encoding="UTF-8"?>

<!-- generated on 2025-07-14 19:06:46 by Eclipse SUMO sumo Version 1.21.0
<sumoConfiguration xmlns:xsi="http://www.w3.org/2001/XMLSchema-instance" xsi:noNamespaceSchemaLocation="http://sumo.dlr.de/xsd/sumoConfiguration.xsd">

    <input>
        <net-file value="sumo_files\city.net.xml"/>
        <route-files value="sumo_files\city.rou.xml"/>
        <junction-taz value="true"/>
    </input>

    <output>
        <tripinfo-output value="sumo_files\tripinfo.xml"/>
    </output>

    <time>
        <begin value="0"/>
    </time>

    <traci_server>
        <remote-port value="51242"/>
    </traci_server>

</sumoConfiguration>
-->

<tripinfos xmlns:xsi="http://www.w3.org/2001/XMLSchema-instance" xsi:noNamespaceSchemaLocation="http://sumo.dlr.de/xsd/tripinfo_file.xsd">
    <tripinfo id="flow_3.0" depart="3.00" departLane="edge_1-2_0" departPos="5.10" departSpeed="0.00" departDelay="3.00" arrival="12.00" arrivalLane="edge_1-2_0" arrivalPos="83.20" arrivalSpeed="14.02" duration="9.00" routeLength="78.10" waitingTime="0.00" waitingCount="0" stopTime="0.00" timeLoss="3.12" rerouteNo="1" devices="tripinfo_flow_3.0 routing_flow_3.0" vType="car" speedFactor="1.08" vaporized=""/>
    <tripinfo id="flow_1.0" depart="0.00" departLane="edge_13-9_0" departPos="5.10" departSpeed="0.00" departDelay="0.00" arrival="18.00" arrivalLane="edge_9-5_0" arrivalPos="79.20" arrivalSpeed="12.06" duration="18.00" routeLength="178.10" waitingTime="0.00" waitingCount="0" stopTime="0.00" timeLoss="3.92" rerouteNo="1" devices="tripinfo_flow_1.0 routing_flow_1.0" vType="car" speedFactor="0.94" vaporized=""/>
    <tripinfo id="flow_5.0" depart="0.00" departLane="edge_5-9_0" departPos="5.10" departSpeed="0.00" departDelay="0.00" arrival="19.00" arrivalLane="edge_9-13_0" arrivalPos="83.20" arrivalSpeed="11.44" duration="19.00" routeLength="178.10" waitingTime="0.00" waitingCount="0" stopTime="0.00" timeLoss="3.29" rerouteNo="1" devices="tripinfo_flow_5.0 routing_flow_5.0" vType="car" speedFactor="0.83" vaporized=""/>
    <tripinfo id="flow_7.0" depart="0.00" departLane="edge_4-3_0" departPos="5.10" departSpeed="0.00" departDelay="0.00" arrival="19.00" arrivalLane="edge_3-2_0" arrivalPos="79.20" arrivalSpeed="11.42" duration="19.00" routeLength="178.10" waitingTime="0.00" waitingCount="0" stopTime="0.00" timeLoss="3.86" rerouteNo="1" devices="tripinfo_flow_7.0 routing_flow_7.0" vType="car" speedFactor="0.89" vaporized=""/>
    <tripinfo id="flow_3.1" depart="9.00" departLane="edge_1-2_0" departPos="5.10" departSpeed="0.00" departDelay="4.56" arrival="19.00" arrivalLane="edge_1-2_0" arrivalPos="83.20" arrivalSpeed="15.29" duration="10.00" routeLength="78.10" waitingTime="0.00" waitingCount="0" stopTime="0.00" timeLoss="4.03" rerouteNo="1" devices="tripinfo_flow_3.1 routing_flow_3.1" vType="car" speedFactor="1.12" vaporized=""/>
    <tripinfo id="flow_5.1" depart="5.00" departLane="edge_5-9_0" departPos="5.10" departSpeed="0.00" departDelay="0.56" arrival="22.00" arrivalLane="edge_9-13_0" arrivalPos="83.20" arrivalSpeed="12.10" duration="17.00" routeLength="178.10" waitingTime="0.00" waitingCount="0" stopTime="0.00" timeLoss="3.13" rerouteNo="1" devices="tripinfo_flow_5.1 routing_flow_5.1" vType="car" speedFactor="0.93" vaporized=""/>
    <tripinfo id="flow_7.1" depart="5.00" departLane="edge_4-3_0" departPos="5.10" departSpeed="0.00" departDelay="0.56" arrival="23.00" arrivalLane="edge_3-2_0" arrivalPos="79.20" arrivalSpeed="12.44" duration="18.00" routeLength="178.10" waitingTime="0.00" waitingCount="0" stopTime="0.00" timeLoss="3.94" rerouteNo="1" devices="tripinfo_flow_7.1 routing_flow_7.1" vType="car" speedFactor="0.94" vaporized=""/>
    <tripinfo id="flow_8.0" depart="0.00" departLane="edge_5-6_0" departPos="5.10" departSpeed="0.00" departDelay="0.00" arrival="25.00" arrivalLane="edge_7-8_0" arrivalPos="79.20" arrivalSpeed="12.52" duration="25.00" routeLength="274.10" waitingTime="0.00" waitingCount="0" stopTime="0.00" timeLoss="3.62" rerouteNo="1" devices="tripinfo_flow_8.0 routing_flow_8.0" vType="car" speedFactor="0.94" vaporized=""/>
    <tripinfo id="flow_3.2" depart="15.00" departLane="edge_1-2_0" departPos="5.10" departSpeed="0.00" departDelay="6.11" arrival="25.00" arrivalLane="edge_1-2_0" arrivalPos="83.20" arrivalSpeed="12.23" duration="10.00" routeLength="78.10" waitingTime="0.00" waitingCount="0" stopTime="0.00" timeLoss="3.38" rerouteNo="1" devices="tripinfo_flow_3.2 routing_flow_3.2" vType="car" speedFactor="0.89" vaporized=""/>
    <tripinfo id="flow_1.1" depart="5.00" departLane="edge_13-9_0" departPos="5.10" departSpeed="0.00" departDelay="0.56" arrival="26.00" arrivalLane="edge_9-5_0" arrivalPos="79.20" arrivalSpeed="7.19" duration="21.00" routeLength="178.10" waitingTime="0.00" waitingCount="0" stopTime="0.00" timeLoss="8.35" rerouteNo="1" devices="tripinfo_flow_1.1 routing_flow_1.1" vType="car" speedFactor="1.03" vaporized=""/>
    <tripinfo id="flow_7.2" depart="9.00" departLane="edge_4-3_0" departPos="5.10" departSpeed="0.00" departDelay="0.11" arrival="26.00" arrivalLane="edge_3-2_0" arrivalPos="79.20" arrivalSpeed="12.94" duration="17.00" routeLength="178.10" waitingTime="0.00" waitingCount="0" stopTime="0.00" timeLoss="3.05" rerouteNo="1" devices="tripinfo_flow_7.2 routing_flow_7.2" vType="car" speedFactor="0.95" vaporized=""/>
    <tripinfo id="flow_9.0" depart="0.00" departLane="edge_16-12_0" departPos="5.10" departSpeed="0.00" departDelay="0.00" arrival="28.00" arrivalLane="edge_8-4_0" arrivalPos="83.20" arrivalSpeed="11.15" duration="28.00" routeLength="282.10" waitingTime="0.00" waitingCount="0" stopTime="0.00" timeLoss="3.73" rerouteNo="1" devices="tripinfo_flow_9.0 routing_flow_9.0" vType="car" speedFactor="0.86" vaporized=""/>
    <tripinfo id="flow_1.2" depart="9.00" departLane="edge_13-9_0" departPos="5.10" departSpeed="0.00" departDelay="0.11" arrival="28.00" arrivalLane="edge_9-5_0" arrivalPos="79.20" arrivalSpeed="8.32" duration="19.00" routeLength="178.10" waitingTime="0.00" waitingCount="0" stopTime="0.00" timeLoss="6.20" rerouteNo="1" devices="tripinfo_flow_1.2 routing_flow_1.2" vType="car" speedFactor="1.01" vaporized=""/>
    <tripinfo id="flow_5.2" depart="9.00" departLane="edge_5-9_0" departPos="5.10" departSpeed="0.00" departDelay="0.11" arrival="28.00" arrivalLane="edge_9-13_0" arrivalPos="83.20" arrivalSpeed="12.04" duration="19.00" routeLength="178.10" waitingTime="0.00" waitingCount="0" stopTime="0.00" timeLoss="3.76" rerouteNo="1" devices="tripinfo_flow_5.2 routing_flow_5.2" vType="car" speedFactor="0.87" vaporized=""/>
    <tripinfo id="flow_8.1" depart="5.00" departLane="edge_5-6_0" departPos="5.10" departSpeed="0.00" departDelay="0.56" arrival="30.00" arrivalLane="edge_7-8_0" arrivalPos="79.20" arrivalSpeed="11.73" duration="25.00" routeLength="274.10" waitingTime="0.00" waitingCount="0" stopTime="0.00" timeLoss="3.80" rerouteNo="1" devices="tripinfo_flow_8.1 routing_flow_8.1" vType="car" speedFactor="0.94" vaporized=""/>
    <tripinfo id="flow_9.1" depart="5.00" departLane="edge_16-12_0" departPos="5.10" departSpeed="0.00" departDelay="0.56" arrival="30.00" arrivalLane="edge_8-4_0" arrivalPos="83.20" arrivalSpeed="14.89" duration="25.00" routeLength="282.10" waitingTime="0.00" waitingCount="0" stopTime="0.00" timeLoss="6.60" rerouteNo="1" devices="tripinfo_flow_9.1 routing_flow_9.1" vType="car" speedFactor="1.16" vaporized=""/>
    <tripinfo id="flow_3.3" depart="21.00" departLane="edge_1-2_0" departPos="5.10" departSpeed="0.00" departDelay="7.67" arrival="30.00" arrivalLane="edge_1-2_0" arrivalPos="83.20" arrivalSpeed="16.04" duration="9.00" routeLength="78.10" waitingTime="0.00" waitingCount="0" stopTime="0.00" timeLoss="3.81" rerouteNo="1" devices="tripinfo_flow_3.3 routing_flow_3.3" vType="car" speedFactor="1.17" vaporized=""/>
    <tripinfo id="flow_5.3" depart="14.00" departLane="edge_5-9_0" departPos="5.10" departSpeed="0.00" departDelay="0.67" arrival="30.00" arrivalLane="edge_9-13_0" arrivalPos="83.20" arrivalSpeed="13.79" duration="16.00" routeLength="178.10" waitingTime="0.00" waitingCount="0" stopTime="0.00" timeLoss="3.13" rerouteNo="1" devices="tripinfo_flow_5.3 routing_flow_5.3" vType="car" speedFactor="1.02" vaporized=""/>
    <tripinfo id="flow_7.3" depart="14.00" departLane="edge_4-3_0" departPos="5.10" departSpeed="0.00" departDelay="0.67" arrival="30.00" arrivalLane="edge_3-2_0" arrivalPos="79.20" arrivalSpeed="16.04" duration="16.00" routeLength="178.10" waitingTime="0.00" waitingCount="0" stopTime="0.00" timeLoss="4.23" rerouteNo="1" devices="tripinfo_flow_7.3 routing_flow_7.3" vType="car" speedFactor="1.18" vaporized=""/>
    <tripinfo id="flow_1.3" depart="14.00" departLane="edge_13-9_0" departPos="5.10" departSpeed="0.00" departDelay="0.67" arrival="32.00" arrivalLane="edge_9-5_0" arrivalPos="79.20" arrivalSpeed="12.84" duration="18.00" routeLength="178.10" waitingTime="0.00" waitingCount="0" stopTime="0.00" timeLoss="6.67" rerouteNo="1" devices="tripinfo_flow_1.3 routing_flow_1.3" vType="car" speedFactor="1.15" vaporized=""/>
    <tripinfo id="flow_4.0" depart="0.00" departLane="edge_9-5_0" departPos="5.10" departSpeed="0.00" departDelay="0.00" arrival="33.00" arrivalLane="edge_7-8_0" arrivalPos="79.20" arrivalSpeed="13.84" duration="33.00" routeLength="362.33" waitingTime="0.00" waitingCount="0" stopTime="0.00" timeLoss="6.29" rerouteNo="1" devices="tripinfo_flow_4.0 routing_flow_4.0" vType="car" speedFactor="1.03" vaporized=""/>
    <tripinfo id="flow_5.4" depart="18.00" departLane="edge_5-9_0" departPos="5.10" departSpeed="0.00" departDelay="0.22" arrival="34.00" arrivalLane="edge_9-13_0" arrivalPos="83.20" arrivalSpeed="14.45" duration="16.00" routeLength="178.10" waitingTime="0.00" waitingCount="0" stopTime="0.00" timeLoss="3.66" rerouteNo="1" devices="tripinfo_flow_5.4 routing_flow_5.4" vType="car" speedFactor="1.09" vaporized=""/>
    <tripinfo id="flow_9.2" depart="9.00" departLane="edge_16-12_0" departPos="5.10" departSpeed="0.00" departDelay="0.11" arrival="35.00" arrivalLane="edge_8-4_0" arrivalPos="83.20" arrivalSpeed="12.82" duration="26.00" routeLength="282.10" waitingTime="0.00" waitingCount="0" stopTime="0.00" timeLoss="3.93" rerouteNo="1" devices="tripinfo_flow_9.2 routing_flow_9.2" vType="car" speedFactor="0.93" vaporized=""/>
    <tripinfo id="flow_1.4" depart="18.00" departLane="edge_13-9_0" departPos="5.10" departSpeed="0.00" departDelay="0.22" arrival="35.00" arrivalLane="edge_9-5_0" arrivalPos="79.20" arrivalSpeed="12.38" duration="17.00" routeLength="178.10" waitingTime="0.00" waitingCount="0" stopTime="0.00" timeLoss="3.14" rerouteNo="1" devices="tripinfo_flow_1.4 routing_flow_1.4" vType="car" speedFactor="0.96" vaporized=""/>
    <tripinfo id="flow_3.4" depart="27.00" departLane="edge_1-2_0" departPos="5.10" departSpeed="0.00" departDelay="9.22" arrival="36.00" arrivalLane="edge_1-2_0" arrivalPos="83.20" arrivalSpeed="13.89" duration="9.00" routeLength="78.10" waitingTime="0.00" waitingCount="0" stopTime="0.00" timeLoss="3.51" rerouteNo="1" devices="tripinfo_flow_3.4 routing_flow_3.4" vType="car" speedFactor="1.04" vaporized=""/>
    <tripinfo id="flow_7.4" depart="18.00" departLane="edge_4-3_0" departPos="5.10" departSpeed="0.00" departDelay="0.22" arrival="36.00" arrivalLane="edge_3-2_0" arrivalPos="79.20" arrivalSpeed="12.18" duration="18.00" routeLength="178.10" waitingTime="0.00" waitingCount="0" stopTime="0.00" timeLoss="3.22" rerouteNo="1" devices="tripinfo_flow_7.4 routing_flow_7.4" vType="car" speedFactor="0.90" vaporized=""/>
    <tripinfo id="flow_4.1" depart="5.00" departLane="edge_9-5_0" departPos="5.10" departSpeed="0.00" departDelay="0.56" arrival="38.00" arrivalLane="edge_7-8_0" arrivalPos="79.20" arrivalSpeed="13.76" duration="33.00" routeLength="362.33" waitingTime="0.00" waitingCount="0" stopTime="0.00" timeLoss="5.80" rerouteNo="1" devices="tripinfo_flow_4.1 routing_flow_4.1" vType="car" speedFactor="0.99" vaporized=""/>
    <tripinfo id="flow_7.5" depart="23.00" departLane="edge_4-3_0" departPos="5.10" departSpeed="0.00" departDelay="0.78" arrival="38.00" arrivalLane="edge_3-2_0" arrivalPos="79.20" arrivalSpeed="14.91" duration="15.00" routeLength="178.10" waitingTime="0.00" waitingCount="0" stopTime="0.00" timeLoss="3.70" rerouteNo="1" devices="tripinfo_flow_7.5 routing_flow_7.5" vType="car" speedFactor="1.14" vaporized=""/>
    <tripinfo id="flow_0.0" depart="0.00" departLane="edge_2-3_0" departPos="5.10" departSpeed="0.00" departDelay="0.00" arrival="40.00" arrivalLane="edge_12-16_0" arrivalPos="83.20" arrivalSpeed="14.04" duration="40.00" routeLength="467.88" waitingTime="0.00" waitingCount="0" stopTime="0.00" timeLoss="8.07" rerouteNo="1" devices="tripinfo_flow_0.0 routing_flow_0.0" vType="car" speedFactor="1.06" vaporized=""/>
    <tripinfo id="flow_6.0" depart="0.00" departLane="edge_4-8_0" departPos="5.10" departSpeed="0.00" departDelay="0.00" arrival="40.00" arrivalLane="edge_10-9_0" arrivalPos="79.20" arrivalSpeed="14.17" duration="40.00" routeLength="466.33" waitingTime="0.00" waitingCount="0" stopTime="0.00" timeLoss="6.41" rerouteNo="1" devices="tripinfo_flow_6.0 routing_flow_6.0" vType="car" speedFactor="1.05" vaporized=""/>
    <tripinfo id="flow_8.2" depart="18.00" departLane="edge_5-6_0" departPos="5.10" departSpeed="0.00" departDelay="9.11" arrival="40.00" arrivalLane="edge_7-8_0" arrivalPos="79.20" arrivalSpeed="14.72" duration="22.00" routeLength="274.10" waitingTime="0.00" waitingCount="0" stopTime="0.00" timeLoss="4.28" rerouteNo="1" devices="tripinfo_flow_8.2 routing_flow_8.2" vType="car" speedFactor="1.13" vaporized=""/>
    <tripinfo id="flow_5.5" depart="23.00" departLane="edge_5-9_0" departPos="5.10" departSpeed="0.00" departDelay="0.78" arrival="40.00" arrivalLane="edge_9-13_0" arrivalPos="83.20" arrivalSpeed="13.54" duration="17.00" routeLength="178.10" waitingTime="0.00" waitingCount="0" stopTime="0.00" timeLoss="3.50" rerouteNo="1" devices="tripinfo_flow_5.5 routing_flow_5.5" vType="car" speedFactor="1.00" vaporized=""/>
    <tripinfo id="flow_9.3" depart="14.00" departLane="edge_16-12_0" departPos="5.10" departSpeed="0.00" departDelay="0.67" arrival="41.00" arrivalLane="edge_8-4_0" arrivalPos="83.20" arrivalSpeed="12.13" duration="27.00" routeLength="282.10" waitingTime="0.00" waitingCount="0" stopTime="0.00" timeLoss="3.81" rerouteNo="1" devices="tripinfo_flow_9.3 routing_flow_9.3" vType="car" speedFactor="0.90" vaporized=""/>
    <tripinfo id="flow_1.5" depart="23.00" departLane="edge_13-9_0" departPos="5.10" departSpeed="0.00" departDelay="0.78" arrival="41.00" arrivalLane="edge_9-5_0" arrivalPos="79.20" arrivalSpeed="13.00" duration="18.00" routeLength="178.10" waitingTime="0.00" waitingCount="0" stopTime="0.00" timeLoss="6.90" rerouteNo="1" devices="tripinfo_flow_1.5 routing_flow_1.5" vType="car" speedFactor="1.17" vaporized=""/>
    <tripinfo id="flow_3.5" depart="33.00" departLane="edge_1-2_0" departPos="5.10" departSpeed="0.00" departDelay="10.78" arrival="42.00" arrivalLane="edge_1-2_0" arrivalPos="83.20" arrivalSpeed="14.55" duration="9.00" routeLength="78.10" waitingTime="0.00" waitingCount="0" stopTime="0.00" timeLoss="3.41" rerouteNo="1" devices="tripinfo_flow_3.5 routing_flow_3.5" vType="car" speedFactor="1.10" vaporized=""/>
    <tripinfo id="flow_8.3" depart="21.00" departLane="edge_5-6_0" departPos="5.10" departSpeed="0.00" departDelay="7.67" arrival="43.00" arrivalLane="edge_7-8_0" arrivalPos="79.20" arrivalSpeed="14.55" duration="22.00" routeLength="274.10" waitingTime="0.00" waitingCount="0" stopTime="0.00" timeLoss="4.08" rerouteNo="1" devices="tripinfo_flow_8.3 routing_flow_8.3" vType="car" speedFactor="1.10" vaporized=""/>
    <tripinfo id="flow_1.6" depart="27.00" departLane="edge_13-9_0" departPos="5.10" departSpeed="0.00" departDelay="0.34" arrival="43.00" arrivalLane="edge_9-5_0" arrivalPos="79.20" arrivalSpeed="15.21" duration="16.00" routeLength="178.10" waitingTime="0.00" waitingCount="0" stopTime="0.00" timeLoss="4.10" rerouteNo="1" devices="tripinfo_flow_1.6 routing_flow_1.6" vType="car" speedFactor="1.12" vaporized=""/>
    <tripinfo id="flow_0.1" depart="5.00" departLane="edge_2-3_0" departPos="5.10" departSpeed="0.00" departDelay="0.56" arrival="44.00" arrivalLane="edge_12-16_1" arrivalPos="83.20" arrivalSpeed="14.86" duration="39.00" routeLength="473.04" waitingTime="0.00" waitingCount="0" stopTime="0.00" timeLoss="7.00" rerouteNo="1" devices="tripinfo_flow_0.1 routing_flow_0.1" vType="car" speedFactor="1.09" vaporized=""/>
    <tripinfo id="flow_5.6" depart="27.00" departLane="edge_5-9_0" departPos="5.10" departSpeed="0.00" departDelay="0.34" arrival="45.00" arrivalLane="edge_9-13_0" arrivalPos="83.20" arrivalSpeed="11.90" duration="18.00" routeLength="178.10" waitingTime="0.00" waitingCount="0" stopTime="0.00" timeLoss="3.07" rerouteNo="1" devices="tripinfo_flow_5.6 routing_flow_5.6" vType="car" speedFactor="0.88" vaporized=""/>
    <tripinfo id="flow_7.6" depart="28.00" departLane="edge_4-3_0" departPos="5.10" departSpeed="0.00" departDelay="1.34" arrival="46.00" arrivalLane="edge_3-2_0" arrivalPos="79.20" arrivalSpeed="11.80" duration="18.00" routeLength="178.10" waitingTime="0.00" waitingCount="0" stopTime="0.00" timeLoss="3.71" rerouteNo="1" devices="tripinfo_flow_7.6 routing_flow_7.6" vType="car" speedFactor="0.91" vaporized=""/>
    <tripinfo id="flow_9.4" depart="18.00" departLane="edge_16-12_0" departPos="5.10" departSpeed="0.00" departDelay="0.22" arrival="47.00" arrivalLane="edge_8-4_0" arrivalPos="83.20" arrivalSpeed="10.68" duration="29.00" routeLength="282.10" waitingTime="0.00" waitingCount="0" stopTime="0.00" timeLoss="4.34" rerouteNo="1" devices="tripinfo_flow_9.4 routing_flow_9.4" vType="car" speedFactor="0.85" vaporized=""/>
    <tripinfo id="flow_9.5" depart="23.00" departLane="edge_16-12_0" departPos="5.10" departSpeed="0.00" departDelay="0.78" arrival="48.00" arrivalLane="edge_8-4_0" arrivalPos="83.20" arrivalSpeed="13.00" duration="25.00" routeLength="282.10" waitingTime="0.00" waitingCount="0" stopTime="0.00" timeLoss="4.02" rerouteNo="1" devices="tripinfo_flow_9.5 routing_flow_9.5" vType="car" speedFactor="0.97" vaporized=""/>
    <tripinfo id="flow_2.0" depart="0.00" departLane="edge_1-2_0" departPos="5.10" departSpeed="0.00" departDelay="0.00" arrival="49.00" arrivalLane="edge_12-16_0" arrivalPos="83.20" arrivalSpeed="13.41" duration="49.00" routeLength="571.88" waitingTime="0.00" waitingCount="0" stopTime="0.00" timeLoss="8.06" rerouteNo="1" devices="tripinfo_flow_2.0 routing_flow_2.0" vType="car" speedFactor="1.01" vaporized=""/>
    <tripinfo id="flow_3.6" depart="39.00" departLane="edge_1-2_0" departPos="5.10" departSpeed="0.00" departDelay="12.34" arrival="49.00" arrivalLane="edge_1-2_0" arrivalPos="83.20" arrivalSpeed="12.82" duration="10.00" routeLength="78.10" waitingTime="0.00" waitingCount="0" stopTime="0.00" timeLoss="3.45" rerouteNo="1" devices="tripinfo_flow_3.6 routing_flow_3.6" vType="car" speedFactor="0.99" vaporized=""/>
    <tripinfo id="flow_5.7" depart="32.00" departLane="edge_5-9_0" departPos="5.10" departSpeed="0.00" departDelay="0.89" arrival="49.00" arrivalLane="edge_9-13_0" arrivalPos="83.20" arrivalSpeed="12.75" duration="17.00" routeLength="178.10" waitingTime="0.00" waitingCount="0" stopTime="0.00" timeLoss="3.61" rerouteNo="1" devices="tripinfo_flow_5.7 routing_flow_5.7" vType="car" speedFactor="0.98" vaporized=""/>
    <tripinfo id="flow_7.7" depart="32.00" departLane="edge_4-3_0" departPos="5.10" departSpeed="0.00" departDelay="0.89" arrival="49.00" arrivalLane="edge_3-2_0" arrivalPos="79.20" arrivalSpeed="13.04" duration="17.00" routeLength="178.10" waitingTime="0.00" waitingCount="0" stopTime="0.00" timeLoss="3.42" rerouteNo="1" devices="tripinfo_flow_7.7 routing_flow_7.7" vType="car" speedFactor="0.98" vaporized=""/>
    <tripinfo id="flow_6.1" depart="5.00" departLane="edge_4-8_0" departPos="5.10" departSpeed="0.00" departDelay="0.56" arrival="51.00" arrivalLane="edge_10-9_0" arrivalPos="79.20" arrivalSpeed="11.19" duration="46.00" routeLength="466.33" waitingTime="0.00" waitingCount="0" stopTime="0.00" timeLoss="6.21" rerouteNo="1" devices="tripinfo_flow_6.1 routing_flow_6.1" vType="car" speedFactor="0.88" vaporized=""/>
    <tripinfo id="flow_9.6" depart="27.00" departLane="edge_16-12_0" departPos="5.10" departSpeed="0.00" departDelay="0.34" arrival="51.00" arrivalLane="edge_8-4_0" arrivalPos="83.20" arrivalSpeed="14.07" duration="24.00" routeLength="282.10" waitingTime="0.00" waitingCount="0" stopTime="0.00" timeLoss="3.96" rerouteNo="1" devices="tripinfo_flow_9.6 routing_flow_9.6" vType="car" speedFactor="1.02" vaporized=""/>
    <tripinfo id="flow_1.7" depart="32.00" departLane="edge_13-9_0" departPos="5.10" departSpeed="0.00" departDelay="0.89" arrival="51.00" arrivalLane="edge_9-5_0" arrivalPos="79.20" arrivalSpeed="11.24" duration="19.00" routeLength="178.10" waitingTime="0.00" waitingCount="0" stopTime="0.00" timeLoss="5.78" rerouteNo="1" devices="tripinfo_flow_1.7 routing_flow_1.7" vType="car" speedFactor="0.97" vaporized=""/>
    <tripinfo id="flow_0.2" depart="12.00" departLane="edge_2-3_0" departPos="5.10" departSpeed="0.00" departDelay="3.11" arrival="52.00" arrivalLane="edge_12-16_1" arrivalPos="83.20" arrivalSpeed="13.87" duration="40.00" routeLength="473.04" waitingTime="0.00" waitingCount="0" stopTime="0.00" timeLoss="5.78" rerouteNo="1" devices="tripinfo_flow_0.2 routing_flow_0.2" vType="car" speedFactor="1.02" vaporized=""/>
    <tripinfo id="flow_7.8" depart="36.00" departLane="edge_4-3_0" departPos="5.10" departSpeed="0.00" departDelay="0.45" arrival="52.00" arrivalLane="edge_3-2_0" arrivalPos="79.20" arrivalSpeed="14.15" duration="16.00" routeLength="178.10" waitingTime="0.00" waitingCount="0" stopTime="0.00" timeLoss="3.23" rerouteNo="1" devices="tripinfo_flow_7.8 routing_flow_7.8" vType="car" speedFactor="1.04" vaporized=""/>
    <tripinfo id="flow_5.8" depart="36.00" departLane="edge_5-9_0" departPos="5.10" departSpeed="0.00" departDelay="0.45" arrival="53.00" arrivalLane="edge_9-13_0" arrivalPos="83.20" arrivalSpeed="13.28" duration="17.00" routeLength="178.10" waitingTime="0.00" waitingCount="0" stopTime="0.00" timeLoss="3.52" rerouteNo="1" devices="tripinfo_flow_5.8 routing_flow_5.8" vType="car" speedFactor="0.98" vaporized=""/>
    <tripinfo id="flow_3.7" depart="45.00" departLane="edge_1-2_0" departPos="5.10" departSpeed="0.00" departDelay="13.89" arrival="54.00" arrivalLane="edge_1-2_0" arrivalPos="83.20" arrivalSpeed="13.56" duration="9.00" routeLength="78.10" waitingTime="0.00" waitingCount="0" stopTime="0.00" timeLoss="3.61" rerouteNo="1" devices="tripinfo_flow_3.7 routing_flow_3.7" vType="car" speedFactor="1.06" vaporized=""/>
    <tripinfo id="flow_2.1" depart="6.00" departLane="edge_1-2_0" departPos="5.10" departSpeed="0.00" departDelay="1.56" arrival="55.00" arrivalLane="edge_12-16_0" arrivalPos="83.20" arrivalSpeed="13.26" duration="49.00" routeLength="571.88" waitingTime="0.00" waitingCount="0" stopTime="0.00" timeLoss="8.59" rerouteNo="1" devices="tripinfo_flow_2.1 routing_flow_2.1" vType="car" speedFactor="1.05" vaporized=""/>
    <tripinfo id="flow_9.7" depart="32.00" departLane="edge_16-12_0" departPos="5.10" departSpeed="0.00" departDelay="0.89" arrival="55.00" arrivalLane="edge_8-4_0" arrivalPos="83.20" arrivalSpeed="14.01" duration="23.00" routeLength="282.10" waitingTime="0.00" waitingCount="0" stopTime="0.00" timeLoss="3.67" rerouteNo="1" devices="tripinfo_flow_9.7 routing_flow_9.7" vType="car" speedFactor="1.09" vaporized=""/>
    <tripinfo id="flow_0.3" depart="19.00" departLane="edge_2-3_0" departPos="5.10" departSpeed="0.00" departDelay="5.67" arrival="56.00" arrivalLane="edge_12-16_1" arrivalPos="83.20" arrivalSpeed="15.96" duration="37.00" routeLength="473.04" waitingTime="0.00" waitingCount="0" stopTime="0.00" timeLoss="7.00" rerouteNo="1" devices="tripinfo_flow_0.3 routing_flow_0.3" vType="car" speedFactor="1.18" vaporized=""/>
    <tripinfo id="flow_1.8" depart="36.00" departLane="edge_13-9_0" departPos="5.10" departSpeed="0.00" departDelay="0.45" arrival="57.00" arrivalLane="edge_9-5_0" arrivalPos="79.20" arrivalSpeed="8.40" duration="21.00" routeLength="178.10" waitingTime="0.00" waitingCount="0" stopTime="0.00" timeLoss="7.99" rerouteNo="1" devices="tripinfo_flow_1.8 routing_flow_1.8" vType="car" speedFactor="1.00" vaporized=""/>
    <tripinfo id="flow_5.9" depart="40.00" departLane="edge_5-9_0" departPos="5.10" departSpeed="0.00" departDelay="0.00" arrival="57.00" arrivalLane="edge_9-13_0" arrivalPos="83.20" arrivalSpeed="14.28" duration="17.00" routeLength="178.10" waitingTime="0.00" waitingCount="0" stopTime="0.00" timeLoss="3.99" rerouteNo="1" devices="tripinfo_flow_5.9 routing_flow_5.9" vType="car" speedFactor="1.06" vaporized=""/>
    <tripinfo id="flow_1.9" depart="40.00" departLane="edge_13-9_0" departPos="5.10" departSpeed="0.00" departDelay="0.00" arrival="59.00" arrivalLane="edge_9-5_0" arrivalPos="79.20" arrivalSpeed="11.37" duration="19.00" routeLength="178.10" waitingTime="0.00" waitingCount="0" stopTime="0.00" timeLoss="4.20" rerouteNo="1" devices="tripinfo_flow_1.9 routing_flow_1.9" vType="car" speedFactor="0.89" vaporized=""/>
    <tripinfo id="flow_7.9" depart="41.00" departLane="edge_4-3_0" departPos="5.10" departSpeed="0.00" departDelay="1.00" arrival="59.00" arrivalLane="edge_3-2_0" arrivalPos="79.20" arrivalSpeed="12.33" duration="18.00" routeLength="178.10" waitingTime="0.00" waitingCount="0" stopTime="0.00" timeLoss="3.44" rerouteNo="1" devices="tripinfo_flow_7.9 routing_flow_7.9" vType="car" speedFactor="0.91" vaporized=""/>
    <tripinfo id="flow_3.8" depart="51.00" departLane="edge_1-2_0" departPos="5.10" departSpeed="0.00" departDelay="15.45" arrival="60.00" arrivalLane="edge_1-2_0" arrivalPos="83.20" arrivalSpeed="13.11" duration="9.00" routeLength="78.10" waitingTime="0.00" waitingCount="0" stopTime="0.00" timeLoss="2.84" rerouteNo="1" devices="tripinfo_flow_3.8 routing_flow_3.8" vType="car" speedFactor="0.97" vaporized=""/>
    <tripinfo id="flow_9.8" depart="36.00" departLane="edge_16-12_0" departPos="5.10" departSpeed="0.00" departDelay="0.45" arrival="60.00" arrivalLane="edge_8-4_0" arrivalPos="83.20" arrivalSpeed="13.50" duration="24.00" routeLength="282.10" waitingTime="0.00" waitingCount="0" stopTime="0.00" timeLoss="4.03" rerouteNo="1" devices="tripinfo_flow_9.8 routing_flow_9.8" vType="car" speedFactor="1.02" vaporized=""/>
    <tripinfo id="flow_5.10" depart="45.00" departLane="edge_5-9_0" departPos="5.10" departSpeed="0.00" departDelay="0.56" arrival="61.00" arrivalLane="edge_9-13_0" arrivalPos="83.20" arrivalSpeed="14.63" duration="16.00" routeLength="178.10" waitingTime="0.00" waitingCount="0" stopTime="0.00" timeLoss="3.57" rerouteNo="1" devices="tripinfo_flow_5.10 routing_flow_5.10" vType="car" speedFactor="1.07" vaporized=""/>
    <tripinfo id="flow_7.10" depart="45.00" departLane="edge_4-3_0" departPos="5.10" departSpeed="0.00" departDelay="0.56" arrival="61.00" arrivalLane="edge_3-2_0" arrivalPos="79.20" arrivalSpeed="13.49" duration="16.00" routeLength="178.10" waitingTime="0.00" waitingCount="0" stopTime="0.00" timeLoss="3.37" rerouteNo="1" devices="tripinfo_flow_7.10 routing_flow_7.10" vType="car" speedFactor="1.03" vaporized=""/>
    <tripinfo id="flow_9.9" depart="40.00" departLane="edge_16-12_0" departPos="5.10" departSpeed="0.00" departDelay="0.00" arrival="63.00" arrivalLane="edge_8-4_0" arrivalPos="83.20" arrivalSpeed="14.03" duration="23.00" routeLength="282.10" waitingTime="0.00" waitingCount="0" stopTime="0.00" timeLoss="4.28" rerouteNo="1" devices="tripinfo_flow_9.9 routing_flow_9.9" vType="car" speedFactor="1.10" vaporized=""/>
    <tripinfo id="flow_2.2" depart="12.00" departLane="edge_1-2_0" departPos="5.10" departSpeed="0.00" departDelay="3.11" arrival="64.00" arrivalLane="edge_12-16_1" arrivalPos="83.20" arrivalSpeed="12.95" duration="52.00" routeLength="577.04" waitingTime="0.00" waitingCount="0" stopTime="0.00" timeLoss="8.05" rerouteNo="1" devices="tripinfo_flow_2.2 routing_flow_2.2" vType="car" speedFactor="0.97" vaporized=""/>
    <tripinfo id="flow_1.10" depart="45.00" departLane="edge_13-9_0" departPos="5.10" departSpeed="0.00" departDelay="0.56" arrival="65.00" arrivalLane="edge_9-5_0" arrivalPos="79.20" arrivalSpeed="8.58" duration="20.00" routeLength="178.10" waitingTime="0.00" waitingCount="0" stopTime="0.00" timeLoss="6.41" rerouteNo="1" devices="tripinfo_flow_1.10 routing_flow_1.10" vType="car" speedFactor="0.96" vaporized=""/>
    <tripinfo id="flow_7.11" depart="49.00" departLane="edge_4-3_0" departPos="5.10" departSpeed="0.00" departDelay="0.12" arrival="65.00" arrivalLane="edge_3-2_0" arrivalPos="79.20" arrivalSpeed="13.69" duration="16.00" routeLength="178.10" waitingTime="0.00" waitingCount="0" stopTime="0.00" timeLoss="3.05" rerouteNo="1" devices="tripinfo_flow_7.11 routing_flow_7.11" vType="car" speedFactor="1.00" vaporized=""/>
    <tripinfo id="flow_5.11" depart="49.00" departLane="edge_5-9_0" departPos="5.10" departSpeed="0.00" departDelay="0.12" arrival="66.00" arrivalLane="edge_9-13_0" arrivalPos="83.20" arrivalSpeed="12.59" duration="17.00" routeLength="178.10" waitingTime="0.00" waitingCount="0" stopTime="0.00" timeLoss="3.10" rerouteNo="1" devices="tripinfo_flow_5.11 routing_flow_5.11" vType="car" speedFactor="0.92" vaporized=""/>
    <tripinfo id="flow_3.9" depart="57.00" departLane="edge_1-2_0" departPos="5.10" departSpeed="0.00" departDelay="17.00" arrival="67.00" arrivalLane="edge_1-2_0" arrivalPos="83.20" arrivalSpeed="12.11" duration="10.00" routeLength="78.10" waitingTime="0.00" waitingCount="0" stopTime="0.00" timeLoss="3.58" rerouteNo="1" devices="tripinfo_flow_3.9 routing_flow_3.9" vType="car" speedFactor="0.92" vaporized=""/>