<?xml version="1.0" encoding="UTF-8"?>

<!-- generated on 2025-08-17 16:34:18 by Eclipse SUMO sumo Version 1.21.0
<sumoConfiguration xmlns:xsi="http://www.w3.org/2001/XMLSchema-instance" xsi:noNamespaceSchemaLocation="http://sumo.dlr.de/xsd/sumoConfiguration.xsd">

    <input>
        <net-file value="sumo_files\city.net.xml"/>
        <route-files value="sumo_files\city.rou.xml"/>
        <additional-files value="sumo_files\city.add.xml"/>
        <junction-taz value="true"/>
    </input>

    <output>
        <tripinfo-output value="sumo_files\tripinfo.xml"/>
    </output>

    <time>
        <begin value="0"/>
    </time>

    <report>
        <no-warnings value="true"/>
        <no-step-log value="true"/>
    </report>

    <traci_server>
        <remote-port value="52466"/>
    </traci_server>

</sumoConfiguration>
-->

<tripinfos xmlns:xsi="http://www.w3.org/2001/XMLSchema-instance" xsi:noNamespaceSchemaLocation="http://sumo.dlr.de/xsd/tripinfo_file.xsd">
    <tripinfo id="flow_1.0" depart="0.00" departLane="edge_1-2_0" departPos="5.10" departSpeed="0.00" departDelay="0.00" arrival="9.00" arrivalLane="edge_1-2_0" arrivalPos="83.20" arrivalSpeed="12.68" duration="9.00" routeLength="78.10" waitingTime="0.00" waitingCount="0" stopTime="0.00" timeLoss="2.96" rerouteNo="1" devices="tripinfo_flow_1.0 routing_flow_1.0" vType="car" speedFactor="0.94" vaporized=""/>
    <tripinfo id="flow_2.0" depart="0.00" departLane="edge_3-2_0" departPos="5.10" departSpeed="0.00" departDelay="0.00" arrival="9.00" arrivalLane="edge_3-2_0" arrivalPos="79.20" arrivalSpeed="12.76" duration="9.00" routeLength="74.10" waitingTime="0.00" waitingCount="0" stopTime="0.00" timeLoss="3.30" rerouteNo="1" devices="tripinfo_flow_2.0 routing_flow_2.0" vType="car" speedFactor="1.01" vaporized=""/>
    <tripinfo id="flow_3.0" depart="0.00" departLane="edge_1-5_0" departPos="5.10" departSpeed="0.00" departDelay="0.00" arrival="9.00" arrivalLane="edge_1-5_0" arrivalPos="83.20" arrivalSpeed="14.44" duration="9.00" routeLength="78.10" waitingTime="0.00" waitingCount="0" stopTime="0.00" timeLoss="3.57" rerouteNo="1" devices="tripinfo_flow_3.0 routing_flow_3.0" vType="car" speedFactor="1.08" vaporized=""/>
    <tripinfo id="flow_7.0" depart="0.00" departLane="edge_14-15_0" departPos="5.10" departSpeed="0.00" departDelay="0.00" arrival="9.00" arrivalLane="edge_14-15_0" arrivalPos="79.20" arrivalSpeed="11.19" duration="9.00" routeLength="74.10" waitingTime="0.00" waitingCount="0" stopTime="0.00" timeLoss="2.65" rerouteNo="1" devices="tripinfo_flow_7.0 routing_flow_7.0" vType="car" speedFactor="0.89" vaporized=""/>
    <tripinfo id="flow_9.0" depart="0.00" departLane="edge_9-5_0" departPos="5.10" departSpeed="0.00" departDelay="0.00" arrival="10.00" arrivalLane="edge_9-5_0" arrivalPos="79.20" arrivalSpeed="10.83" duration="10.00" routeLength="74.10" waitingTime="0.00" waitingCount="0" stopTime="0.00" timeLoss="2.98" rerouteNo="1" devices="tripinfo_flow_9.0 routing_flow_9.0" vType="car" speedFactor="0.86" vaporized=""/>
    <tripinfo id="flow_6.0" depart="0.00" departLane="edge_2-3_0" departPos="5.10" departSpeed="0.00" departDelay="0.00" arrival="16.00" arrivalLane="edge_3-4_0" arrivalPos="83.20" arrivalSpeed="13.82" duration="16.00" routeLength="178.10" waitingTime="0.00" waitingCount="0" stopTime="0.00" timeLoss="3.68" rerouteNo="1" devices="tripinfo_flow_6.0 routing_flow_6.0" vType="car" speedFactor="1.05" vaporized=""/>
    <tripinfo id="flow_0.0" depart="0.00" departLane="edge_9-10_0" departPos="5.10" departSpeed="0.00" departDelay="0.00" arrival="23.00" arrivalLane="edge_11-12_0" arrivalPos="79.20" arrivalSpeed="13.91" duration="23.00" routeLength="274.10" waitingTime="0.00" waitingCount="0" stopTime="0.00" timeLoss="4.30" rerouteNo="1" devices="tripinfo_flow_0.0 routing_flow_0.0" vType="car" speedFactor="1.06" vaporized=""/>
    <tripinfo id="flow_4.0" depart="3.00" departLane="edge_1-5_0" departPos="5.10" departSpeed="0.00" departDelay="3.00" arrival="27.00" arrivalLane="edge_9-13_0" arrivalPos="83.20" arrivalSpeed="13.47" duration="24.00" routeLength="282.10" waitingTime="0.00" waitingCount="0" stopTime="0.00" timeLoss="4.04" rerouteNo="1" devices="tripinfo_flow_4.0 routing_flow_4.0" vType="car" speedFactor="1.03" vaporized=""/>
    <tripinfo id="flow_5.0" depart="0.00" departLane="edge_12-11_0" departPos="5.10" departSpeed="0.00" departDelay="0.00" arrival="28.00" arrivalLane="edge_10-9_0" arrivalPos="79.20" arrivalSpeed="10.36" duration="28.00" routeLength="274.10" waitingTime="0.00" waitingCount="0" stopTime="0.00" timeLoss="3.68" rerouteNo="1" devices="tripinfo_flow_5.0 routing_flow_5.0" vType="car" speedFactor="0.83" vaporized=""/>
    <tripinfo id="flow_1.1" depart="20.00" departLane="edge_1-2_0" departPos="5.10" departSpeed="0.00" departDelay="0.00" arrival="29.00" arrivalLane="edge_1-2_0" arrivalPos="83.20" arrivalSpeed="13.59" duration="9.00" routeLength="78.10" waitingTime="0.00" waitingCount="0" stopTime="0.00" timeLoss="3.41" rerouteNo="1" devices="tripinfo_flow_1.1 routing_flow_1.1" vType="car" speedFactor="1.03" vaporized=""/>
    <tripinfo id="flow_2.1" depart="20.00" departLane="edge_3-2_0" departPos="5.10" departSpeed="0.00" departDelay="0.00" arrival="29.00" arrivalLane="edge_3-2_0" arrivalPos="79.20" arrivalSpeed="14.37" duration="9.00" routeLength="74.10" waitingTime="0.00" waitingCount="0" stopTime="0.00" timeLoss="3.36" rerouteNo="1" devices="tripinfo_flow_2.1 routing_flow_2.1" vType="car" speedFactor="1.05" vaporized=""/>
    <tripinfo id="flow_3.1" depart="20.00" departLane="edge_1-5_0" departPos="5.10" departSpeed="0.00" departDelay="0.00" arrival="29.00" arrivalLane="edge_1-5_0" arrivalPos="83.20" arrivalSpeed="14.80" duration="9.00" routeLength="78.10" waitingTime="0.00" waitingCount="0" stopTime="0.00" timeLoss="3.14" rerouteNo="1" devices="tripinfo_flow_3.1 routing_flow_3.1" vType="car" speedFactor="1.12" vaporized=""/>
    <tripinfo id="flow_7.1" depart="20.00" departLane="edge_14-15_0" departPos="5.10" departSpeed="0.00" departDelay="0.00" arrival="29.00" arrivalLane="edge_14-15_0" arrivalPos="79.20" arrivalSpeed="12.25" duration="9.00" routeLength="74.10" waitingTime="0.00" waitingCount="0" stopTime="0.00" timeLoss="2.84" rerouteNo="1" devices="tripinfo_flow_7.1 routing_flow_7.1" vType="car" speedFactor="0.94" vaporized=""/>
    <tripinfo id="flow_9.1" depart="20.00" departLane="edge_9-5_0" departPos="5.10" departSpeed="0.00" departDelay="0.00" arrival="29.00" arrivalLane="edge_9-5_0" arrivalPos="79.20" arrivalSpeed="14.98" duration="9.00" routeLength="74.10" waitingTime="0.00" waitingCount="0" stopTime="0.00" timeLoss="3.86" rerouteNo="1" devices="tripinfo_flow_9.1 routing_flow_9.1" vType="car" speedFactor="1.16" vaporized=""/>
    <tripinfo id="flow_8.0" depart="0.00" departLane="edge_4-8_0" departPos="5.10" departSpeed="0.00" departDelay="0.00" arrival="37.00" arrivalLane="edge_16-15_0" arrivalPos="83.20" arrivalSpeed="12.02" duration="37.00" routeLength="367.88" waitingTime="0.00" waitingCount="0" stopTime="0.00" timeLoss="7.23" rerouteNo="1" devices="tripinfo_flow_8.0 routing_flow_8.0" vType="car" speedFactor="0.94" vaporized=""/>
    <tripinfo id="flow_6.1" depart="20.00" departLane="edge_2-3_0" departPos="5.10" departSpeed="0.00" departDelay="0.00" arrival="38.00" arrivalLane="edge_3-4_0" arrivalPos="83.20" arrivalSpeed="11.62" duration="18.00" routeLength="178.10" waitingTime="0.00" waitingCount="0" stopTime="0.00" timeLoss="3.01" rerouteNo="1" devices="tripinfo_flow_6.1 routing_flow_6.1" vType="car" speedFactor="0.88" vaporized=""/>
    <tripinfo id="flow_4.1" depart="23.00" departLane="edge_1-5_0" departPos="5.10" departSpeed="0.00" departDelay="3.00" arrival="48.00" arrivalLane="edge_9-13_0" arrivalPos="83.20" arrivalSpeed="12.58" duration="25.00" routeLength="282.10" waitingTime="0.00" waitingCount="0" stopTime="0.00" timeLoss="3.84" rerouteNo="1" devices="tripinfo_flow_4.1 routing_flow_4.1" vType="car" speedFactor="0.99" vaporized=""/>
    <tripinfo id="flow_1.2" depart="40.00" departLane="edge_1-2_0" departPos="5.10" departSpeed="0.00" departDelay="0.00" arrival="49.00" arrivalLane="edge_1-2_0" arrivalPos="83.20" arrivalSpeed="13.74" duration="9.00" routeLength="78.10" waitingTime="0.00" waitingCount="0" stopTime="0.00" timeLoss="2.90" rerouteNo="1" devices="tripinfo_flow_1.2 routing_flow_1.2" vType="car" speedFactor="1.01" vaporized=""/>
    <tripinfo id="flow_2.2" depart="40.00" departLane="edge_3-2_0" departPos="5.10" departSpeed="0.00" departDelay="0.00" arrival="49.00" arrivalLane="edge_3-2_0" arrivalPos="79.20" arrivalSpeed="13.11" duration="9.00" routeLength="74.10" waitingTime="0.00" waitingCount="0" stopTime="0.00" timeLoss="3.36" rerouteNo="1" devices="tripinfo_flow_2.2 routing_flow_2.2" vType="car" speedFactor="0.97" vaporized=""/>
    <tripinfo id="flow_7.2" depart="40.00" departLane="edge_14-15_0" departPos="5.10" departSpeed="0.00" departDelay="0.00" arrival="49.00" arrivalLane="edge_14-15_0" arrivalPos="79.20" arrivalSpeed="12.86" duration="9.00" routeLength="74.10" waitingTime="0.00" waitingCount="0" stopTime="0.00" timeLoss="3.30" rerouteNo="1" devices="tripinfo_flow_7.2 routing_flow_7.2" vType="car" speedFactor="0.95" vaporized=""/>
    <tripinfo id="flow_9.2" depart="40.00" departLane="edge_9-5_0" departPos="5.10" departSpeed="0.00" departDelay="0.00" arrival="49.00" arrivalLane="edge_9-5_0" arrivalPos="79.20" arrivalSpeed="12.06" duration="9.00" routeLength="74.10" waitingTime="0.00" waitingCount="0" stopTime="0.00" timeLoss="2.81" rerouteNo="1" devices="tripinfo_flow_9.2 routing_flow_9.2" vType="car" speedFactor="0.93" vaporized=""/>
    <tripinfo id="flow_3.2" depart="40.00" departLane="edge_1-5_0" departPos="5.10" departSpeed="0.00" departDelay="0.00" arrival="50.00" arrivalLane="edge_1-5_0" arrivalPos="83.20" arrivalSpeed="11.95" duration="10.00" routeLength="78.10" waitingTime="0.00" waitingCount="0" stopTime="0.00" timeLoss="2.87" rerouteNo="1" devices="tripinfo_flow_3.2 routing_flow_3.2" vType="car" speedFactor="0.89" vaporized=""/>
    <tripinfo id="flow_8.1" depart="20.00" departLane="edge_4-8_0" departPos="5.10" departSpeed="0.00" departDelay="0.00" arrival="56.00" arrivalLane="edge_16-15_0" arrivalPos="83.20" arrivalSpeed="12.44" duration="36.00" routeLength="367.88" waitingTime="0.00" waitingCount="0" stopTime="0.00" timeLoss="7.14" rerouteNo="1" devices="tripinfo_flow_8.1 routing_flow_8.1" vType="car" speedFactor="0.94" vaporized=""/>
    <tripinfo id="flow_0.1" depart="20.00" departLane="edge_9-10_0" departPos="5.10" departSpeed="0.00" departDelay="0.00" arrival="57.00" arrivalLane="edge_11-12_0" arrivalPos="79.20" arrivalSpeed="15.04" duration="37.00" routeLength="274.10" waitingTime="8.00" waitingCount="1" stopTime="0.00" timeLoss="18.34" rerouteNo="1" devices="tripinfo_flow_0.1 routing_flow_0.1" vType="car" speedFactor="1.09" vaporized=""/>
    <tripinfo id="flow_6.2" depart="40.00" departLane="edge_2-3_0" departPos="5.10" departSpeed="0.00" departDelay="0.00" arrival="58.00" arrivalLane="edge_3-4_0" arrivalPos="83.20" arrivalSpeed="11.53" duration="18.00" routeLength="178.10" waitingTime="0.00" waitingCount="0" stopTime="0.00" timeLoss="3.14" rerouteNo="1" devices="tripinfo_flow_6.2 routing_flow_6.2" vType="car" speedFactor="0.92" vaporized=""/>
    <tripinfo id="flow_0.2" depart="40.00" departLane="edge_9-10_0" departPos="5.10" departSpeed="0.00" departDelay="0.00" arrival="63.00" arrivalLane="edge_11-12_0" arrivalPos="79.20" arrivalSpeed="12.85" duration="23.00" routeLength="274.10" waitingTime="0.00" waitingCount="0" stopTime="0.00" timeLoss="3.43" rerouteNo="1" devices="tripinfo_flow_0.2 routing_flow_0.2" vType="car" speedFactor="1.02" vaporized=""/>
    <tripinfo id="flow_1.3" depart="60.00" departLane="edge_1-2_0" departPos="5.10" departSpeed="0.00" departDelay="0.00" arrival="69.00" arrivalLane="edge_1-2_0" arrivalPos="83.20" arrivalSpeed="15.06" duration="9.00" routeLength="78.10" waitingTime="0.00" waitingCount="0" stopTime="0.00" timeLoss="3.78" rerouteNo="1" devices="tripinfo_flow_1.3 routing_flow_1.3" vType="car" speedFactor="1.15" vaporized=""/>
    <tripinfo id="flow_2.3" depart="60.00" departLane="edge_3-2_0" departPos="5.10" departSpeed="0.00" departDelay="0.00" arrival="69.00" arrivalLane="edge_3-2_0" arrivalPos="79.20" arrivalSpeed="13.67" duration="9.00" routeLength="74.10" waitingTime="0.00" waitingCount="0" stopTime="0.00" timeLoss="3.01" rerouteNo="1" devices="tripinfo_flow_2.3 routing_flow_2.3" vType="car" speedFactor="1.01" vaporized=""/>
    <tripinfo id="flow_3.3" depart="60.00" departLane="edge_1-5_0" departPos="5.10" departSpeed="0.00" departDelay="0.00" arrival="69.00" arrivalLane="edge_1-5_0" arrivalPos="83.20" arrivalSpeed="15.41" duration="9.00" routeLength="78.10" waitingTime="0.00" waitingCount="0" stopTime="0.00" timeLoss="4.16" rerouteNo="1" devices="tripinfo_flow_3.3 routing_flow_3.3" vType="car" speedFactor="1.17" vaporized=""/>
    <tripinfo id="flow_7.3" depart="60.00" departLane="edge_14-15_0" departPos="5.10" departSpeed="0.00" departDelay="0.00" arrival="69.00" arrivalLane="edge_14-15_0" arrivalPos="79.20" arrivalSpeed="15.31" duration="9.00" routeLength="74.10" waitingTime="0.00" waitingCount="0" stopTime="0.00" timeLoss="4.23" rerouteNo="1" devices="tripinfo_flow_7.3 routing_flow_7.3" vType="car" speedFactor="1.18" vaporized=""/>
    <tripinfo id="flow_9.3" depart="60.00" departLane="edge_9-5_0" departPos="5.10" departSpeed="0.00" departDelay="0.00" arrival="70.00" arrivalLane="edge_9-5_0" arrivalPos="79.20" arrivalSpeed="12.05" duration="10.00" routeLength="74.10" waitingTime="0.00" waitingCount="0" stopTime="0.00" timeLoss="3.51" rerouteNo="1" devices="tripinfo_flow_9.3 routing_flow_9.3" vType="car" speedFactor="0.90" vaporized=""/>
    <tripinfo id="flow_4.2" depart="43.00" departLane="edge_1-5_0" departPos="5.10" departSpeed="0.00" departDelay="3.00" arrival="72.00" arrivalLane="edge_9-13_0" arrivalPos="83.20" arrivalSpeed="10.79" duration="29.00" routeLength="282.10" waitingTime="0.00" waitingCount="0" stopTime="0.00" timeLoss="3.53" rerouteNo="1" devices="tripinfo_flow_4.2 routing_flow_4.2" vType="car" speedFactor="0.83" vaporized=""/>
    <tripinfo id="flow_8.2" depart="40.00" departLane="edge_4-8_0" departPos="5.10" departSpeed="0.00" departDelay="0.00" arrival="72.00" arrivalLane="edge_16-15_0" arrivalPos="83.20" arrivalSpeed="14.86" duration="32.00" routeLength="367.88" waitingTime="0.00" waitingCount="0" stopTime="0.00" timeLoss="7.69" rerouteNo="1" devices="tripinfo_flow_8.2 routing_flow_8.2" vType="car" speedFactor="1.13" vaporized=""/>
    <tripinfo id="flow_6.3" depart="60.00" departLane="edge_2-3_0" departPos="5.10" departSpeed="0.00" departDelay="0.00" arrival="77.00" arrivalLane="edge_3-4_0" arrivalPos="83.20" arrivalSpeed="12.55" duration="17.00" routeLength="178.10" waitingTime="0.00" waitingCount="0" stopTime="0.00" timeLoss="3.58" rerouteNo="1" devices="tripinfo_flow_6.3 routing_flow_6.3" vType="car" speedFactor="0.97" vaporized=""/>
    <tripinfo id="flow_5.1" depart="20.00" departLane="edge_12-11_0" departPos="5.10" departSpeed="0.00" departDelay="0.00" arrival="88.00" arrivalLane="edge_10-9_0" arrivalPos="79.20" arrivalSpeed="12.60" duration="68.00" routeLength="274.10" waitingTime="32.00" waitingCount="2" stopTime="0.00" timeLoss="46.49" rerouteNo="1" devices="tripinfo_flow_5.1 routing_flow_5.1" vType="car" speedFactor="0.93" vaporized=""/>
    <tripinfo id="flow_4.3" depart="63.00" departLane="edge_1-5_0" departPos="5.10" departSpeed="0.00" departDelay="3.00" arrival="88.00" arrivalLane="edge_9-13_0" arrivalPos="83.20" arrivalSpeed="12.96" duration="25.00" routeLength="282.10" waitingTime="0.00" waitingCount="0" stopTime="0.00" timeLoss="3.96" rerouteNo="1" devices="tripinfo_flow_4.3 routing_flow_4.3" vType="car" speedFactor="0.99" vaporized=""/>
    <tripinfo id="flow_5.2" depart="40.00" departLane="edge_12-11_0" departPos="5.10" departSpeed="0.00" departDelay="0.00" arrival="89.00" arrivalLane="edge_10-9_1" arrivalPos="79.20" arrivalSpeed="11.38" duration="49.00" routeLength="274.10" waitingTime="17.00" waitingCount="1" stopTime="0.00" timeLoss="25.84" rerouteNo="1" devices="tripinfo_flow_5.2 routing_flow_5.2" vType="car" speedFactor="0.87" vaporized=""/>
    <tripinfo id="flow_1.4" depart="80.00" departLane="edge_1-2_0" departPos="5.10" departSpeed="0.00" departDelay="0.00" arrival="89.00" arrivalLane="edge_1-2_0" arrivalPos="83.20" arrivalSpeed="12.48" duration="9.00" routeLength="78.10" waitingTime="0.00" waitingCount="0" stopTime="0.00" timeLoss="3.05" rerouteNo="1" devices="tripinfo_flow_1.4 routing_flow_1.4" vType="car" speedFactor="0.96" vaporized=""/>
    <tripinfo id="flow_2.4" depart="80.00" departLane="edge_3-2_0" departPos="5.10" departSpeed="0.00" departDelay="0.00" arrival="89.00" arrivalLane="edge_3-2_0" arrivalPos="79.20" arrivalSpeed="14.16" duration="9.00" routeLength="74.10" waitingTime="0.00" waitingCount="0" stopTime="0.00" timeLoss="4.01" rerouteNo="1" devices="tripinfo_flow_2.4 routing_flow_2.4" vType="car" speedFactor="1.09" vaporized=""/>
    <tripinfo id="flow_3.4" depart="80.00" departLane="edge_1-5_0" departPos="5.10" departSpeed="0.00" departDelay="0.00" arrival="89.00" arrivalLane="edge_1-5_0" arrivalPos="83.20" arrivalSpeed="13.92" duration="9.00" routeLength="78.10" waitingTime="0.00" waitingCount="0" stopTime="0.00" timeLoss="3.29" rerouteNo="1" devices="tripinfo_flow_3.4 routing_flow_3.4" vType="car" speedFactor="1.04" vaporized=""/>
    <tripinfo id="flow_7.4" depart="80.00" departLane="edge_14-15_0" departPos="5.10" departSpeed="0.00" departDelay="0.00" arrival="89.00" arrivalLane="edge_14-15_0" arrivalPos="79.20" arrivalSpeed="11.86" duration="9.00" routeLength="74.10" waitingTime="0.00" waitingCount="0" stopTime="0.00" timeLoss="2.89" rerouteNo="1" devices="tripinfo_flow_7.4 routing_flow_7.4" vType="car" speedFactor="0.90" vaporized=""/>
    <tripinfo id="flow_5.3" depart="60.00" departLane="edge_12-11_0" departPos="5.10" departSpeed="0.00" departDelay="0.00" arrival="90.00" arrivalLane="edge_10-9_0" arrivalPos="79.20" arrivalSpeed="14.01" duration="30.00" routeLength="274.10" waitingTime="1.00" waitingCount="1" stopTime="0.00" timeLoss="10.17" rerouteNo="1" devices="tripinfo_flow_5.3 routing_flow_5.3" vType="car" speedFactor="1.02" vaporized=""/>
    <tripinfo id="flow_9.4" depart="80.00" departLane="edge_9-5_0" departPos="5.10" departSpeed="0.00" departDelay="0.00" arrival="90.00" arrivalLane="edge_9-5_0" arrivalPos="79.20" arrivalSpeed="11.10" duration="10.00" routeLength="74.10" waitingTime="0.00" waitingCount="0" stopTime="0.00" timeLoss="3.43" rerouteNo="1" devices="tripinfo_flow_9.4 routing_flow_9.4" vType="car" speedFactor="0.85" vaporized=""/>
    <tripinfo id="flow_8.3" depart="60.00" departLane="edge_4-8_0" departPos="5.10" departSpeed="0.00" departDelay="0.00" arrival="93.00" arrivalLane="edge_16-15_0" arrivalPos="83.20" arrivalSpeed="14.20" duration="33.00" routeLength="367.88" waitingTime="0.00" waitingCount="0" stopTime="0.00" timeLoss="8.12" rerouteNo="1" devices="tripinfo_flow_8.3 routing_flow_8.3" vType="car" speedFactor="1.10" vaporized=""/>
    <tripinfo id="flow_6.4" depart="80.00" departLane="edge_2-3_0" departPos="5.10" departSpeed="0.00" departDelay="0.00" arrival="97.00" arrivalLane="edge_3-4_0" arrivalPos="83.20" arrivalSpeed="13.47" duration="17.00" routeLength="178.10" waitingTime="0.00" waitingCount="0" stopTime="0.00" timeLoss="3.24" rerouteNo="1" devices="tripinfo_flow_6.4 routing_flow_6.4" vType="car" speedFactor="1.00" vaporized=""/>
    <tripinfo id="flow_0.3" depart="60.00" departLane="edge_9-10_0" departPos="5.10" departSpeed="0.00" departDelay="0.00" arrival="104.00" arrivalLane="edge_11-12_0" arrivalPos="79.20" arrivalSpeed="15.70" duration="44.00" routeLength="274.10" waitingTime="12.00" waitingCount="2" stopTime="0.00" timeLoss="26.33" rerouteNo="1" devices="tripinfo_flow_0.3 routing_flow_0.3" vType="car" speedFactor="1.18" vaporized=""/>
    <tripinfo id="flow_0.4" depart="80.00" departLane="edge_9-10_0" departPos="5.10" departSpeed="0.00" departDelay="0.00" arrival="105.00" arrivalLane="edge_11-12_1" arrivalPos="79.20" arrivalSpeed="13.08" duration="25.00" routeLength="274.10" waitingTime="0.00" waitingCount="0" stopTime="0.00" timeLoss="5.37" rerouteNo="1" devices="tripinfo_flow_0.4 routing_flow_0.4" vType="car" speedFactor="1.03" vaporized=""/>
    <tripinfo id="flow_4.4" depart="83.00" departLane="edge_1-5_0" departPos="5.10" departSpeed="0.00" departDelay="3.00" arrival="107.00" arrivalLane="edge_9-13_0" arrivalPos="83.20" arrivalSpeed="14.49" duration="24.00" routeLength="282.10" waitingTime="0.00" waitingCount="0" stopTime="0.00" timeLoss="3.88" rerouteNo="1" devices="tripinfo_flow_4.4 routing_flow_4.4" vType="car" speedFactor="1.04" vaporized=""/>
    <tripinfo id="flow_1.5" depart="100.00" departLane="edge_1-2_0" departPos="5.10" departSpeed="0.00" departDelay="0.00" arrival="109.00" arrivalLane="edge_1-2_0" arrivalPos="83.20" arrivalSpeed="15.33" duration="9.00" routeLength="78.10" waitingTime="0.00" waitingCount="0" stopTime="0.00" timeLoss="4.18" rerouteNo="1" devices="tripinfo_flow_1.5 routing_flow_1.5" vType="car" speedFactor="1.17" vaporized=""/>
    <tripinfo id="flow_2.5" depart="100.00" departLane="edge_3-2_0" departPos="5.10" departSpeed="0.00" departDelay="0.00" arrival="109.00" arrivalLane="edge_3-2_0" arrivalPos="79.20" arrivalSpeed="13.45" duration="9.00" routeLength="74.10" waitingTime="0.00" waitingCount="0" stopTime="0.00" timeLoss="3.60" rerouteNo="1" devices="tripinfo_flow_2.5 routing_flow_2.5" vType="car" speedFactor="1.02" vaporized=""/>
    <tripinfo id="flow_3.5" depart="100.00" departLane="edge_1-5_0" departPos="5.10" departSpeed="0.00" departDelay="0.00" arrival="109.00" arrivalLane="edge_1-5_0" arrivalPos="83.20" arrivalSpeed="14.31" duration="9.00" routeLength="78.10" waitingTime="0.00" waitingCount="0" stopTime="0.00" timeLoss="3.61" rerouteNo="1" devices="tripinfo_flow_3.5 routing_flow_3.5" vType="car" speedFactor="1.10" vaporized=""/>
    <tripinfo id="flow_7.5" depart="100.00" departLane="edge_14-15_0" departPos="5.10" departSpeed="0.00" departDelay="0.00" arrival="109.00" arrivalLane="edge_14-15_0" arrivalPos="79.20" arrivalSpeed="14.97" duration="9.00" routeLength="74.10" waitingTime="0.00" waitingCount="0" stopTime="0.00" timeLoss="3.91" rerouteNo="1" devices="tripinfo_flow_7.5 routing_flow_7.5" vType="car" speedFactor="1.14" vaporized=""/>
    <tripinfo id="flow_9.5" depart="100.00" departLane="edge_9-5_0" departPos="5.10" departSpeed="0.00" departDelay="0.00" arrival="109.00" arrivalLane="edge_9-5_0" arrivalPos="79.20" arrivalSpeed="12.85" duration="9.00" routeLength="74.10" waitingTime="0.00" waitingCount="0" stopTime="0.00" timeLoss="3.04" rerouteNo="1" devices="tripinfo_flow_9.5 routing_flow_9.5" vType="car" speedFactor="0.97" vaporized=""/>
    <tripinfo id="flow_5.4" depart="80.00" departLane="edge_12-11_0" departPos="5.10" departSpeed="0.00" departDelay="0.00" arrival="110.00" arrivalLane="edge_10-9_0" arrivalPos="79.20" arrivalSpeed="14.83" duration="30.00" routeLength="274.10" waitingTime="2.00" waitingCount="1" stopTime="0.00" timeLoss="11.49" rerouteNo="1" devices="tripinfo_flow_5.4 routing_flow_5.4" vType="car" speedFactor="1.09" vaporized=""/>
    <tripinfo id="flow_6.5" depart="100.00" departLane="edge_2-3_0" departPos="5.10" departSpeed="0.00" departDelay="0.00" arrival="118.00" arrivalLane="edge_3-4_0" arrivalPos="83.20" arrivalSpeed="11.59" duration="18.00" routeLength="178.10" waitingTime="0.00" waitingCount="0" stopTime="0.00" timeLoss="3.24" rerouteNo="1" devices="tripinfo_flow_6.5 routing_flow_6.5" vType="car" speedFactor="0.90" vaporized=""/>
    <tripinfo id="flow_8.4" depart="80.00" departLane="edge_4-8_0" departPos="5.10" departSpeed="0.00" departDelay="0.00" arrival="119.00" arrivalLane="edge_16-15_0" arrivalPos="83.20" arrivalSpeed="12.07" duration="39.00" routeLength="367.88" waitingTime="0.00" waitingCount="0" stopTime="0.00" timeLoss="7.36" rerouteNo="1" devices="tripinfo_flow_8.4 routing_flow_8.4" vType="car" speedFactor="0.88" vaporized=""/>
    <tripinfo id="flow_5.5" depart="100.00" departLane="edge_12-11_0" departPos="5.10" departSpeed="0.00" departDelay="0.00" arrival="124.00" arrivalLane="edge_10-9_0" arrivalPos="79.20" arrivalSpeed="13.80" duration="24.00" routeLength="274.10" waitingTime="0.00" waitingCount="0" stopTime="0.00" timeLoss="3.79" rerouteNo="1" devices="tripinfo_flow_5.5 routing_flow_5.5" vType="car" speedFactor="1.00" vaporized=""/>
    <tripinfo id="flow_0.5" depart="100.00" departLane="edge_9-10_0" departPos="5.10" departSpeed="0.00" departDelay="0.00" arrival="127.00" arrivalLane="edge_11-12_0" arrivalPos="79.20" arrivalSpeed="11.50" duration="27.00" routeLength="274.10" waitingTime="0.00" waitingCount="0" stopTime="0.00" timeLoss="3.40" rerouteNo="1" devices="tripinfo_flow_0.5 routing_flow_0.5" vType="car" speedFactor="0.85" vaporized=""/>
    <tripinfo id="flow_4.5" depart="103.00" departLane="edge_1-5_0" departPos="5.10" departSpeed="0.00" departDelay="3.00" arrival="128.00" arrivalLane="edge_9-13_0" arrivalPos="83.20" arrivalSpeed="13.51" duration="25.00" routeLength="282.10" waitingTime="0.00" waitingCount="0" stopTime="0.00" timeLoss="4.32" rerouteNo="1" devices="tripinfo_flow_4.5 routing_flow_4.5" vType="car" speedFactor="1.00" vaporized=""/>
    <tripinfo id="flow_1.6" depart="120.00" departLane="edge_1-2_0" departPos="5.10" departSpeed="0.00" departDelay="0.00" arrival="129.00" arrivalLane="edge_1-2_0" arrivalPos="83.20" arrivalSpeed="14.29" duration="9.00" routeLength="78.10" waitingTime="0.00" waitingCount="0" stopTime="0.00" timeLoss="3.54" rerouteNo="1" devices="tripinfo_flow_1.6 routing_flow_1.6" vType="car" speedFactor="1.12" vaporized=""/>
    <tripinfo id="flow_2.6" depart="120.00" departLane="edge_3-2_0" departPos="5.10" departSpeed="0.00" departDelay="0.00" arrival="129.00" arrivalLane="edge_3-2_0" arrivalPos="79.20" arrivalSpeed="13.73" duration="9.00" routeLength="74.10" waitingTime="0.00" waitingCount="0" stopTime="0.00" timeLoss="3.34" rerouteNo="1" devices="tripinfo_flow_2.6 routing_flow_2.6" vType="car" speedFactor="1.02" vaporized=""/>
    <tripinfo id="flow_3.6" depart="120.00" departLane="edge_1-5_0" departPos="5.10" departSpeed="0.00" departDelay="0.00" arrival="129.00" arrivalLane="edge_1-5_0" arrivalPos="83.20" arrivalSpeed="12.90" duration="9.00" routeLength="78.10" waitingTime="0.00" waitingCount="0" stopTime="0.00" timeLoss="3.29" rerouteNo="1" devices="tripinfo_flow_3.6 routing_flow_3.6" vType="car" speedFactor="0.99" vaporized=""/>
    <tripinfo id="flow_7.6" depart="120.00" departLane="edge_14-15_0" departPos="5.10" departSpeed="0.00" departDelay="0.00" arrival="129.00" arrivalLane="edge_14-15_0" arrivalPos="79.20" arrivalSpeed="12.32" duration="9.00" routeLength="74.10" waitingTime="0.00" waitingCount="0" stopTime="0.00" timeLoss="2.85" rerouteNo="1" devices="tripinfo_flow_7.6 routing_flow_7.6" vType="car" speedFactor="0.91" vaporized=""/>
    <tripinfo id="flow_9.6" depart="120.00" departLane="edge_9-5_0" departPos="5.10" departSpeed="0.00" departDelay="0.00" arrival="129.00" arrivalLane="edge_9-5_0" arrivalPos="79.20" arrivalSpeed="13.36" duration="9.00" routeLength="74.10" waitingTime="0.00" waitingCount="0" stopTime="0.00" timeLoss="3.44" rerouteNo="1" devices="tripinfo_flow_9.6 routing_flow_9.6" vType="car" speedFactor="1.02" vaporized=""/>
    <tripinfo id="flow_8.5" depart="100.00" departLane="edge_4-8_0" departPos="5.10" departSpeed="0.00" departDelay="0.00" arrival="135.00" arrivalLane="edge_16-15_0" arrivalPos="83.20" arrivalSpeed="13.97" duration="35.00" routeLength="367.88" waitingTime="0.00" waitingCount="0" stopTime="0.00" timeLoss="8.21" rerouteNo="1" devices="tripinfo_flow_8.5 routing_flow_8.5" vType="car" speedFactor="1.02" vaporized=""/>
    <tripinfo id="flow_6.6" depart="120.00" departLane="edge_2-3_0" departPos="5.10" departSpeed="0.00" departDelay="0.00" arrival="139.00" arrivalLane="edge_3-4_0" arrivalPos="83.20" arrivalSpeed="11.65" duration="19.00" routeLength="178.10" waitingTime="0.00" waitingCount="0" stopTime="0.00" timeLoss="4.00" rerouteNo="1" devices="tripinfo_flow_6.6 routing_flow_6.6" vType="car" speedFactor="0.91" vaporized=""/>
    <tripinfo id="flow_4.6" depart="123.00" departLane="edge_1-5_0" departPos="5.10" departSpeed="0.00" departDelay="3.00" arrival="149.00" arrivalLane="edge_9-13_0" arrivalPos="83.20" arrivalSpeed="12.96" duration="26.00" routeLength="282.10" waitingTime="0.00" waitingCount="0" stopTime="0.00" timeLoss="3.95" rerouteNo="1" devices="tripinfo_flow_4.6 routing_flow_4.6" vType="car" speedFactor="0.94" vaporized=""/>
    <tripinfo id="flow_2.7" depart="140.00" departLane="edge_3-2_0" departPos="5.10" departSpeed="0.00" departDelay="0.00" arrival="149.00" arrivalLane="edge_3-2_0" arrivalPos="79.20" arrivalSpeed="12.39" duration="9.00" routeLength="74.10" waitingTime="0.00" waitingCount="0" stopTime="0.00" timeLoss="3.07" rerouteNo="1" devices="tripinfo_flow_2.7 routing_flow_2.7" vType="car" speedFactor="0.94" vaporized=""/>
    <tripinfo id="flow_7.7" depart="140.00" departLane="edge_14-15_0" departPos="5.10" departSpeed="0.00" departDelay="0.00" arrival="149.00" arrivalLane="edge_14-15_0" arrivalPos="79.20" arrivalSpeed="13.02" duration="9.00" routeLength="74.10" waitingTime="0.00" waitingCount="0" stopTime="0.00" timeLoss="2.97" rerouteNo="1" devices="tripinfo_flow_7.7 routing_flow_7.7" vType="car" speedFactor="0.98" vaporized=""/>