<?xml version="1.0" encoding="UTF-8"?>

<!-- generated on 2025-07-15 19:25:23 by Eclipse SUMO sumo Version 1.21.0
<sumoConfiguration xmlns:xsi="http://www.w3.org/2001/XMLSchema-instance" xsi:noNamespaceSchemaLocation="http://sumo.dlr.de/xsd/sumoConfiguration.xsd">

    <input>
        <net-file value="sumo_files\city.net.xml"/>
        <route-files value="sumo_files\city.rou.xml"/>
        <junction-taz value="true"/>
    </input>

    <output>
        <tripinfo-output value="sumo_files\tripinfo.xml"/>
    </output>

    <time>
        <begin value="0"/>
    </time>

    <traci_server>
        <remote-port value="51931"/>
    </traci_server>

</sumoConfiguration>
-->

<tripinfos xmlns:xsi="http://www.w3.org/2001/XMLSchema-instance" xsi:noNamespaceSchemaLocation="http://sumo.dlr.de/xsd/tripinfo_file.xsd">
    <tripinfo id="flow_4.0" depart="0.00" departLane="edge_15-16_0" departPos="5.10" departSpeed="0.00" departDelay="0.00" arrival="9.00" arrivalLane="edge_15-16_0" arrivalPos="83.20" arrivalSpeed="13.34" duration="9.00" routeLength="78.10" waitingTime="0.00" waitingCount="0" stopTime="0.00" timeLoss="2.82" rerouteNo="1" devices="tripinfo_flow_4.0 routing_flow_4.0" vType="car" speedFactor="1.03" vaporized=""/>
    <tripinfo id="flow_4.1" depart="3.00" departLane="edge_15-16_0" departPos="5.10" departSpeed="0.00" departDelay="1.40" arrival="12.00" arrivalLane="edge_15-16_0" arrivalPos="83.20" arrivalSpeed="13.20" duration="9.00" routeLength="78.10" waitingTime="0.00" waitingCount="0" stopTime="0.00" timeLoss="3.33" rerouteNo="1" devices="tripinfo_flow_4.1 routing_flow_4.1" vType="car" speedFactor="0.99" vaporized=""/>
    <tripinfo id="flow_4.2" depart="6.00" departLane="edge_15-16_0" departPos="5.10" departSpeed="0.00" departDelay="2.80" arrival="16.00" arrivalLane="edge_15-16_0" arrivalPos="83.20" arrivalSpeed="11.44" duration="10.00" routeLength="78.10" waitingTime="0.00" waitingCount="0" stopTime="0.00" timeLoss="2.48" rerouteNo="1" devices="tripinfo_flow_4.2 routing_flow_4.2" vType="car" speedFactor="0.83" vaporized=""/>
    <tripinfo id="flow_7.0" depart="0.00" departLane="edge_2-3_0" departPos="5.10" departSpeed="0.00" departDelay="0.00" arrival="19.00" arrivalLane="edge_3-4_0" arrivalPos="83.20" arrivalSpeed="8.42" duration="19.00" routeLength="178.10" waitingTime="0.00" waitingCount="0" stopTime="0.00" timeLoss="4.23" rerouteNo="1" devices="tripinfo_flow_7.0 routing_flow_7.0" vType="car" speedFactor="0.89" vaporized=""/>
    <tripinfo id="flow_4.3" depart="9.00" departLane="edge_15-16_0" departPos="5.10" departSpeed="0.00" departDelay="4.20" arrival="19.00" arrivalLane="edge_15-16_0" arrivalPos="83.20" arrivalSpeed="13.64" duration="10.00" routeLength="78.10" waitingTime="0.00" waitingCount="0" stopTime="0.00" timeLoss="3.75" rerouteNo="1" devices="tripinfo_flow_4.3 routing_flow_4.3" vType="car" speedFactor="0.99" vaporized=""/>
    <tripinfo id="flow_7.1" depart="3.00" departLane="edge_2-3_0" departPos="5.10" departSpeed="0.00" departDelay="1.40" arrival="21.00" arrivalLane="edge_3-4_0" arrivalPos="83.20" arrivalSpeed="12.51" duration="18.00" routeLength="178.10" waitingTime="0.00" waitingCount="0" stopTime="0.00" timeLoss="3.98" rerouteNo="1" devices="tripinfo_flow_7.1 routing_flow_7.1" vType="car" speedFactor="0.94" vaporized=""/>
    <tripinfo id="flow_4.4" depart="12.00" departLane="edge_15-16_0" departPos="5.10" departSpeed="0.00" departDelay="5.60" arrival="21.00" arrivalLane="edge_15-16_0" arrivalPos="83.20" arrivalSpeed="14.20" duration="9.00" routeLength="78.10" waitingTime="0.00" waitingCount="0" stopTime="0.00" timeLoss="2.75" rerouteNo="1" devices="tripinfo_flow_4.4 routing_flow_4.4" vType="car" speedFactor="1.04" vaporized=""/>
    <tripinfo id="flow_7.2" depart="6.00" departLane="edge_2-3_0" departPos="5.10" departSpeed="0.00" departDelay="2.80" arrival="23.00" arrivalLane="edge_3-4_0" arrivalPos="83.20" arrivalSpeed="13.09" duration="17.00" routeLength="178.10" waitingTime="0.00" waitingCount="0" stopTime="0.00" timeLoss="3.00" rerouteNo="1" devices="tripinfo_flow_7.2 routing_flow_7.2" vType="car" speedFactor="0.95" vaporized=""/>
    <tripinfo id="flow_4.5" depart="15.00" departLane="edge_15-16_0" departPos="5.10" departSpeed="0.00" departDelay="7.00" arrival="24.00" arrivalLane="edge_15-16_0" arrivalPos="83.20" arrivalSpeed="13.57" duration="9.00" routeLength="78.10" waitingTime="0.00" waitingCount="0" stopTime="0.00" timeLoss="2.83" rerouteNo="1" devices="tripinfo_flow_4.5 routing_flow_4.5" vType="car" speedFactor="1.00" vaporized=""/>
    <tripinfo id="flow_7.3" depart="9.00" departLane="edge_2-3_0" departPos="5.10" departSpeed="0.00" departDelay="4.20" arrival="25.00" arrivalLane="edge_3-4_0" arrivalPos="83.20" arrivalSpeed="15.70" duration="16.00" routeLength="178.10" waitingTime="0.00" waitingCount="0" stopTime="0.00" timeLoss="4.39" rerouteNo="1" devices="tripinfo_flow_7.3 routing_flow_7.3" vType="car" speedFactor="1.18" vaporized=""/>
    <tripinfo id="flow_8.0" depart="0.00" departLane="edge_14-13_0" departPos="5.10" departSpeed="0.00" departDelay="0.00" arrival="27.00" arrivalLane="edge_9-5_1" arrivalPos="79.20" arrivalSpeed="12.17" duration="27.00" routeLength="269.04" waitingTime="0.00" waitingCount="0" stopTime="0.00" timeLoss="5.63" rerouteNo="1" devices="tripinfo_flow_8.0 routing_flow_8.0" vType="car" speedFactor="0.94" vaporized=""/>
    <tripinfo id="flow_4.6" depart="18.00" departLane="edge_15-16_0" departPos="5.10" departSpeed="0.00" departDelay="8.40" arrival="28.00" arrivalLane="edge_15-16_0" arrivalPos="83.20" arrivalSpeed="12.89" duration="10.00" routeLength="78.10" waitingTime="0.00" waitingCount="0" stopTime="0.00" timeLoss="3.17" rerouteNo="1" devices="tripinfo_flow_4.6 routing_flow_4.6" vType="car" speedFactor="0.94" vaporized=""/>
    <tripinfo id="flow_8.2" depart="6.00" departLane="edge_14-13_0" departPos="5.10" departSpeed="0.00" departDelay="2.80" arrival="30.00" arrivalLane="edge_9-5_1" arrivalPos="79.20" arrivalSpeed="15.60" duration="24.00" routeLength="269.04" waitingTime="0.00" waitingCount="0" stopTime="0.00" timeLoss="6.24" rerouteNo="1" devices="tripinfo_flow_8.2 routing_flow_8.2" vType="car" speedFactor="1.13" vaporized=""/>
    <tripinfo id="flow_5.0" depart="3.00" departLane="edge_13-9_0" departPos="5.10" departSpeed="0.00" departDelay="3.00" arrival="31.00" arrivalLane="edge_5-1_0" arrivalPos="83.20" arrivalSpeed="11.43" duration="28.00" routeLength="282.10" waitingTime="0.00" waitingCount="0" stopTime="0.00" timeLoss="3.55" rerouteNo="1" devices="tripinfo_flow_5.0 routing_flow_5.0" vType="car" speedFactor="0.83" vaporized=""/>
    <tripinfo id="flow_8.1" depart="3.00" departLane="edge_14-13_0" departPos="5.10" departSpeed="0.00" departDelay="1.40" arrival="31.00" arrivalLane="edge_9-5_0" arrivalPos="79.20" arrivalSpeed="12.29" duration="28.00" routeLength="263.88" waitingTime="0.00" waitingCount="0" stopTime="0.00" timeLoss="7.00" rerouteNo="1" devices="tripinfo_flow_8.1 routing_flow_8.1" vType="car" speedFactor="0.94" vaporized=""/>
    <tripinfo id="flow_4.7" depart="21.00" departLane="edge_15-16_0" departPos="5.10" departSpeed="0.00" departDelay="9.80" arrival="31.00" arrivalLane="edge_15-16_0" arrivalPos="83.20" arrivalSpeed="12.99" duration="10.00" routeLength="78.10" waitingTime="0.00" waitingCount="0" stopTime="0.00" timeLoss="3.44" rerouteNo="1" devices="tripinfo_flow_4.7 routing_flow_4.7" vType="car" speedFactor="0.96" vaporized=""/>
    <tripinfo id="flow_7.4" depart="12.00" departLane="edge_2-3_0" departPos="5.10" departSpeed="0.00" departDelay="5.60" arrival="33.00" arrivalLane="edge_3-4_0" arrivalPos="83.20" arrivalSpeed="5.20" duration="21.00" routeLength="178.10" waitingTime="0.00" waitingCount="0" stopTime="0.00" timeLoss="6.64" rerouteNo="1" devices="tripinfo_flow_7.4 routing_flow_7.4" vType="car" speedFactor="0.90" vaporized=""/>
    <tripinfo id="flow_4.8" depart="24.00" departLane="edge_15-16_0" departPos="5.10" departSpeed="0.00" departDelay="11.20" arrival="33.00" arrivalLane="edge_15-16_0" arrivalPos="83.20" arrivalSpeed="15.38" duration="9.00" routeLength="78.10" waitingTime="0.00" waitingCount="0" stopTime="0.00" timeLoss="3.75" rerouteNo="1" devices="tripinfo_flow_4.8 routing_flow_4.8" vType="car" speedFactor="1.15" vaporized=""/>
    <tripinfo id="flow_6.0" depart="0.00" departLane="edge_3-4_0" departPos="5.10" departSpeed="0.00" departDelay="0.00" arrival="34.00" arrivalLane="edge_12-16_0" arrivalPos="83.20" arrivalSpeed="14.42" duration="34.00" routeLength="367.88" waitingTime="0.00" waitingCount="0" stopTime="0.00" timeLoss="7.55" rerouteNo="1" devices="tripinfo_flow_6.0 routing_flow_6.0" vType="car" speedFactor="1.05" vaporized=""/>
    <tripinfo id="flow_5.1" depart="9.00" departLane="edge_13-9_0" departPos="5.10" departSpeed="0.00" departDelay="7.40" arrival="35.00" arrivalLane="edge_5-1_0" arrivalPos="83.20" arrivalSpeed="12.34" duration="26.00" routeLength="282.10" waitingTime="0.00" waitingCount="0" stopTime="0.00" timeLoss="3.76" rerouteNo="1" devices="tripinfo_flow_5.1 routing_flow_5.1" vType="car" speedFactor="0.93" vaporized=""/>
    <tripinfo id="flow_8.3" depart="9.00" departLane="edge_14-13_0" departPos="5.10" departSpeed="0.00" departDelay="4.20" arrival="35.00" arrivalLane="edge_9-5_0" arrivalPos="79.20" arrivalSpeed="14.30" duration="26.00" routeLength="263.88" waitingTime="0.00" waitingCount="0" stopTime="0.00" timeLoss="8.18" rerouteNo="1" devices="tripinfo_flow_8.3 routing_flow_8.3" vType="car" speedFactor="1.10" vaporized=""/>
    <tripinfo id="flow_7.5" depart="15.00" departLane="edge_2-3_0" departPos="5.10" departSpeed="0.00" departDelay="7.00" arrival="35.00" arrivalLane="edge_3-4_0" arrivalPos="83.20" arrivalSpeed="8.04" duration="20.00" routeLength="178.10" waitingTime="0.00" waitingCount="0" stopTime="0.00" timeLoss="8.71" rerouteNo="1" devices="tripinfo_flow_7.5 routing_flow_7.5" vType="car" speedFactor="1.14" vaporized=""/>
    <tripinfo id="flow_4.9" depart="27.00" departLane="edge_15-16_0" departPos="5.10" departSpeed="0.00" departDelay="12.60" arrival="36.00" arrivalLane="edge_15-16_0" arrivalPos="83.20" arrivalSpeed="15.11" duration="9.00" routeLength="78.10" waitingTime="0.00" waitingCount="0" stopTime="0.00" timeLoss="3.56" rerouteNo="1" devices="tripinfo_flow_4.9 routing_flow_4.9" vType="car" speedFactor="1.09" vaporized=""/>
    <tripinfo id="flow_1.0" depart="0.00" departLane="edge_13-9_0" departPos="5.10" departSpeed="0.00" departDelay="0.00" arrival="37.00" arrivalLane="edge_1-2_1" arrivalPos="83.20" arrivalSpeed="11.73" duration="37.00" routeLength="373.04" waitingTime="0.00" waitingCount="0" stopTime="0.00" timeLoss="7.03" rerouteNo="1" devices="tripinfo_flow_1.0 routing_flow_1.0" vType="car" speedFactor="0.94" vaporized=""/>
    <tripinfo id="flow_7.6" depart="18.00" departLane="edge_2-3_0" departPos="5.10" departSpeed="0.00" departDelay="8.40" arrival="37.00" arrivalLane="edge_3-4_0" arrivalPos="83.20" arrivalSpeed="11.77" duration="19.00" routeLength="178.10" waitingTime="0.00" waitingCount="0" stopTime="0.00" timeLoss="4.60" rerouteNo="1" devices="tripinfo_flow_7.6 routing_flow_7.6" vType="car" speedFactor="0.91" vaporized=""/>
    <tripinfo id="flow_7.7" depart="21.00" departLane="edge_2-3_0" departPos="5.10" departSpeed="0.00" departDelay="9.80" arrival="39.00" arrivalLane="edge_3-4_0" arrivalPos="83.20" arrivalSpeed="12.87" duration="18.00" routeLength="178.10" waitingTime="0.00" waitingCount="0" stopTime="0.00" timeLoss="4.36" rerouteNo="1" devices="tripinfo_flow_7.7 routing_flow_7.7" vType="car" speedFactor="0.98" vaporized=""/>
    <tripinfo id="flow_1.1" depart="6.00" departLane="edge_13-9_0" departPos="5.10" departSpeed="0.00" departDelay="4.40" arrival="40.00" arrivalLane="edge_1-2_1" arrivalPos="83.20" arrivalSpeed="13.41" duration="34.00" routeLength="373.04" waitingTime="0.00" waitingCount="0" stopTime="0.00" timeLoss="6.54" rerouteNo="1" devices="tripinfo_flow_1.1 routing_flow_1.1" vType="car" speedFactor="1.03" vaporized=""/>
    <tripinfo id="flow_4.10" depart="30.00" departLane="edge_15-16_0" departPos="5.10" departSpeed="0.00" departDelay="14.00" arrival="40.00" arrivalLane="edge_15-16_0" arrivalPos="83.20" arrivalSpeed="11.75" duration="10.00" routeLength="78.10" waitingTime="0.00" waitingCount="0" stopTime="0.00" timeLoss="3.00" rerouteNo="1" devices="tripinfo_flow_4.10 routing_flow_4.10" vType="car" speedFactor="0.89" vaporized=""/>
    <tripinfo id="flow_6.1" depart="3.00" departLane="edge_3-4_0" departPos="5.10" departSpeed="0.00" departDelay="1.40" arrival="41.00" arrivalLane="edge_12-16_1" arrivalPos="83.20" arrivalSpeed="11.85" duration="38.00" routeLength="373.04" waitingTime="0.00" waitingCount="0" stopTime="0.00" timeLoss="5.48" rerouteNo="1" devices="tripinfo_flow_6.1 routing_flow_6.1" vType="car" speedFactor="0.88" vaporized=""/>
    <tripinfo id="flow_8.4" depart="12.00" departLane="edge_14-13_0" departPos="5.10" departSpeed="0.00" departDelay="5.60" arrival="41.00" arrivalLane="edge_9-5_1" arrivalPos="79.20" arrivalSpeed="11.05" duration="29.00" routeLength="269.04" waitingTime="0.00" waitingCount="0" stopTime="0.00" timeLoss="6.20" rerouteNo="1" devices="tripinfo_flow_8.4 routing_flow_8.4" vType="car" speedFactor="0.88" vaporized=""/>
    <tripinfo id="flow_8.5" depart="15.00" departLane="edge_14-13_0" departPos="5.10" departSpeed="0.00" departDelay="7.00" arrival="41.00" arrivalLane="edge_9-5_0" arrivalPos="79.20" arrivalSpeed="13.22" duration="26.00" routeLength="263.88" waitingTime="0.00" waitingCount="0" stopTime="0.00" timeLoss="7.33" rerouteNo="1" devices="tripinfo_flow_8.5 routing_flow_8.5" vType="car" speedFactor="1.02" vaporized=""/>
    <tripinfo id="flow_7.8" depart="24.00" departLane="edge_2-3_0" departPos="5.10" departSpeed="0.00" departDelay="11.20" arrival="41.00" arrivalLane="edge_3-4_0" arrivalPos="83.20" arrivalSpeed="13.62" duration="17.00" routeLength="178.10" waitingTime="0.00" waitingCount="0" stopTime="0.00" timeLoss="4.06" rerouteNo="1" devices="tripinfo_flow_7.8 routing_flow_7.8" vType="car" speedFactor="1.04" vaporized=""/>
    <tripinfo id="flow_6.2" depart="6.00" departLane="edge_3-4_0" departPos="5.10" departSpeed="0.00" departDelay="2.80" arrival="42.00" arrivalLane="edge_12-16_0" arrivalPos="83.20" arrivalSpeed="12.36" duration="36.00" routeLength="367.88" waitingTime="0.00" waitingCount="0" stopTime="0.00" timeLoss="6.40" rerouteNo="1" devices="tripinfo_flow_6.2 routing_flow_6.2" vType="car" speedFactor="0.92" vaporized=""/>
    <tripinfo id="flow_4.11" depart="33.00" departLane="edge_15-16_0" departPos="5.10" departSpeed="0.00" departDelay="15.40" arrival="42.00" arrivalLane="edge_15-16_0" arrivalPos="83.20" arrivalSpeed="15.13" duration="9.00" routeLength="78.10" waitingTime="0.00" waitingCount="0" stopTime="0.00" timeLoss="3.63" rerouteNo="1" devices="tripinfo_flow_4.11 routing_flow_4.11" vType="car" speedFactor="1.10" vaporized=""/>
    <tripinfo id="flow_8.6" depart="18.00" departLane="edge_14-13_0" departPos="5.10" departSpeed="0.00" departDelay="8.40" arrival="44.00" arrivalLane="edge_9-5_1" arrivalPos="79.20" arrivalSpeed="13.99" duration="26.00" routeLength="269.04" waitingTime="0.00" waitingCount="0" stopTime="0.00" timeLoss="6.04" rerouteNo="1" devices="tripinfo_flow_8.6 routing_flow_8.6" vType="car" speedFactor="1.04" vaporized=""/>
    <tripinfo id="flow_4.12" depart="36.00" departLane="edge_15-16_0" departPos="5.10" departSpeed="0.00" departDelay="16.80" arrival="46.00" arrivalLane="edge_15-16_0" arrivalPos="83.20" arrivalSpeed="14.28" duration="10.00" routeLength="78.10" waitingTime="0.00" waitingCount="0" stopTime="0.00" timeLoss="3.87" rerouteNo="1" devices="tripinfo_flow_4.12 routing_flow_4.12" vType="car" speedFactor="1.06" vaporized=""/>
    <tripinfo id="flow_8.7" depart="21.00" departLane="edge_14-13_0" departPos="5.10" departSpeed="0.00" departDelay="9.80" arrival="48.00" arrivalLane="edge_9-5_1" arrivalPos="79.20" arrivalSpeed="13.55" duration="27.00" routeLength="269.04" waitingTime="0.00" waitingCount="0" stopTime="0.00" timeLoss="6.70" rerouteNo="1" devices="tripinfo_flow_8.7 routing_flow_8.7" vType="car" speedFactor="1.01" vaporized=""/>
    <tripinfo id="flow_7.9" depart="27.00" departLane="edge_2-3_0" departPos="5.10" departSpeed="0.00" departDelay="12.60" arrival="48.00" arrivalLane="edge_3-4_0" arrivalPos="83.20" arrivalSpeed="5.48" duration="21.00" routeLength="178.10" waitingTime="0.00" waitingCount="0" stopTime="0.00" timeLoss="6.84" rerouteNo="1" devices="tripinfo_flow_7.9 routing_flow_7.9" vType="car" speedFactor="0.91" vaporized=""/>
    <tripinfo id="flow_4.13" depart="39.00" departLane="edge_15-16_0" departPos="5.10" departSpeed="0.00" departDelay="18.20" arrival="48.00" arrivalLane="edge_15-16_0" arrivalPos="83.20" arrivalSpeed="16.50" duration="9.00" routeLength="78.10" waitingTime="0.00" waitingCount="0" stopTime="0.00" timeLoss="4.40" rerouteNo="1" devices="tripinfo_flow_4.13 routing_flow_4.13" vType="car" speedFactor="1.23" vaporized=""/>
    <tripinfo id="flow_7.10" depart="30.00" departLane="edge_2-3_0" departPos="5.10" departSpeed="0.00" departDelay="14.00" arrival="50.00" arrivalLane="edge_3-4_0" arrivalPos="83.20" arrivalSpeed="8.10" duration="20.00" routeLength="178.10" waitingTime="0.00" waitingCount="0" stopTime="0.00" timeLoss="7.60" rerouteNo="1" devices="tripinfo_flow_7.10 routing_flow_7.10" vType="car" speedFactor="1.03" vaporized=""/>
    <tripinfo id="flow_8.8" depart="24.00" departLane="edge_14-13_0" departPos="5.10" departSpeed="0.00" departDelay="11.20" arrival="52.00" arrivalLane="edge_9-5_0" arrivalPos="79.20" arrivalSpeed="13.42" duration="28.00" routeLength="263.88" waitingTime="0.00" waitingCount="0" stopTime="0.00" timeLoss="7.81" rerouteNo="1" devices="tripinfo_flow_8.8 routing_flow_8.8" vType="car" speedFactor="1.01" vaporized=""/>
    <tripinfo id="flow_8.9" depart="27.00" departLane="edge_14-13_0" departPos="5.10" departSpeed="0.00" departDelay="12.60" arrival="52.00" arrivalLane="edge_9-5_1" arrivalPos="79.20" arrivalSpeed="14.52" duration="25.00" routeLength="269.04" waitingTime="0.00" waitingCount="0" stopTime="0.00" timeLoss="6.37" rerouteNo="1" devices="tripinfo_flow_8.9 routing_flow_8.9" vType="car" speedFactor="1.12" vaporized=""/>
    <tripinfo id="flow_7.11" depart="33.00" departLane="edge_2-3_0" departPos="5.10" departSpeed="0.00" departDelay="15.40" arrival="52.00" arrivalLane="edge_3-4_0" arrivalPos="83.20" arrivalSpeed="10.48" duration="19.00" routeLength="178.10" waitingTime="0.00" waitingCount="0" stopTime="0.00" timeLoss="6.06" rerouteNo="1" devices="tripinfo_flow_7.11 routing_flow_7.11" vType="car" speedFactor="1.00" vaporized=""/>
    <tripinfo id="flow_4.14" depart="42.00" departLane="edge_15-16_0" departPos="5.10" departSpeed="0.00" departDelay="19.60" arrival="53.00" arrivalLane="edge_15-16_0" arrivalPos="83.20" arrivalSpeed="9.11" duration="11.00" routeLength="78.10" waitingTime="0.00" waitingCount="0" stopTime="0.00" timeLoss="2.73" rerouteNo="1" devices="tripinfo_flow_4.14 routing_flow_4.14" vType="car" speedFactor="0.73" vaporized=""/>
    <tripinfo id="flow_9.0" depart="0.00" departLane="edge_2-6_0" departPos="5.10" departSpeed="0.00" departDelay="0.00" arrival="55.00" arrivalLane="edge_6-5_0" arrivalPos="79.20" arrivalSpeed="11.23" duration="55.00" routeLength="162.33" waitingTime="33.00" waitingCount="1" stopTime="0.00" timeLoss="40.26" rerouteNo="1" devices="tripinfo_flow_9.0 routing_flow_9.0" vType="car" speedFactor="0.86" vaporized=""/>
    <tripinfo id="flow_6.3" depart="20.00" departLane="edge_3-4_0" departPos="5.10" departSpeed="0.00" departDelay="15.20" arrival="55.00" arrivalLane="edge_12-16_0" arrivalPos="83.20" arrivalSpeed="12.39" duration="35.00" routeLength="367.88" waitingTime="0.00" waitingCount="0" stopTime="0.00" timeLoss="7.06" rerouteNo="1" devices="tripinfo_flow_6.3 routing_flow_6.3" vType="car" speedFactor="0.97" vaporized=""/>
    <tripinfo id="flow_4.15" depart="45.00" departLane="edge_15-16_0" departPos="5.10" departSpeed="0.00" departDelay="21.00" arrival="55.00" arrivalLane="edge_15-16_0" arrivalPos="83.20" arrivalSpeed="14.00" duration="10.00" routeLength="78.10" waitingTime="0.00" waitingCount="0" stopTime="0.00" timeLoss="4.04" rerouteNo="1" devices="tripinfo_flow_4.15 routing_flow_4.15" vType="car" speedFactor="1.06" vaporized=""/>
    <tripinfo id="flow_3.0" depart="3.00" departLane="edge_15-11_0" departPos="5.10" departSpeed="0.00" departDelay="3.00" arrival="56.00" arrivalLane="edge_11-12_0" arrivalPos="79.20" arrivalSpeed="14.13" duration="53.00" routeLength="162.33" waitingTime="32.00" waitingCount="1" stopTime="0.00" timeLoss="41.20" rerouteNo="1" devices="tripinfo_flow_3.0 routing_flow_3.0" vType="car" speedFactor="1.08" vaporized=""/>
    <tripinfo id="flow_8.10" depart="30.00" departLane="edge_14-13_0" departPos="5.10" departSpeed="0.00" departDelay="14.00" arrival="56.00" arrivalLane="edge_9-5_0" arrivalPos="79.20" arrivalSpeed="14.24" duration="26.00" routeLength="263.88" waitingTime="0.00" waitingCount="0" stopTime="0.00" timeLoss="7.54" rerouteNo="1" devices="tripinfo_flow_8.10 routing_flow_8.10" vType="car" speedFactor="1.06" vaporized=""/>
    <tripinfo id="flow_9.1" depart="3.00" departLane="edge_2-6_0" departPos="5.10" departSpeed="0.00" departDelay="1.40" arrival="57.00" arrivalLane="edge_6-5_0" arrivalPos="79.20" arrivalSpeed="15.26" duration="54.00" routeLength="162.33" waitingTime="31.00" waitingCount="1" stopTime="0.00" timeLoss="42.17" rerouteNo="1" devices="tripinfo_flow_9.1 routing_flow_9.1" vType="car" speedFactor="1.16" vaporized=""/>
    <tripinfo id="flow_4.16" depart="48.00" departLane="edge_15-16_0" departPos="5.10" departSpeed="0.00" departDelay="22.40" arrival="57.00" arrivalLane="edge_15-16_0" arrivalPos="83.20" arrivalSpeed="14.24" duration="9.00" routeLength="78.10" waitingTime="0.00" waitingCount="0" stopTime="0.00" timeLoss="3.19" rerouteNo="1" devices="tripinfo_flow_4.16 routing_flow_4.16" vType="car" speedFactor="1.05" vaporized=""/>
    <tripinfo id="flow_7.12" depart="36.00" departLane="edge_2-3_0" departPos="5.10" departSpeed="0.00" departDelay="16.80" arrival="58.00" arrivalLane="edge_3-4_0" arrivalPos="83.20" arrivalSpeed="6.81" duration="22.00" routeLength="178.10" waitingTime="0.00" waitingCount="0" stopTime="0.00" timeLoss="6.31" rerouteNo="1" devices="tripinfo_flow_7.12 routing_flow_7.12" vType="car" speedFactor="0.82" vaporized=""/>
    <tripinfo id="flow_3.1" depart="9.00" departLane="edge_15-11_0" departPos="5.10" departSpeed="0.00" departDelay="7.40" arrival="59.00" arrivalLane="edge_11-12_0" arrivalPos="79.20" arrivalSpeed="14.73" duration="50.00" routeLength="162.33" waitingTime="28.00" waitingCount="1" stopTime="0.00" timeLoss="38.29" rerouteNo="1" devices="tripinfo_flow_3.1 routing_flow_3.1" vType="car" speedFactor="1.12" vaporized=""/>
    <tripinfo id="flow_9.2" depart="6.00" departLane="edge_2-6_0" departPos="5.10" departSpeed="0.00" departDelay="2.80" arrival="60.00" arrivalLane="edge_6-5_0" arrivalPos="79.20" arrivalSpeed="12.70" duration="54.00" routeLength="162.33" waitingTime="29.00" waitingCount="1" stopTime="0.00" timeLoss="40.14" rerouteNo="1" devices="tripinfo_flow_9.2 routing_flow_9.2" vType="car" speedFactor="0.93" vaporized=""/>
    <tripinfo id="flow_8.11" depart="33.00" departLane="edge_14-13_0" departPos="5.10" departSpeed="0.00" departDelay="15.40" arrival="60.00" arrivalLane="edge_9-5_1" arrivalPos="79.20" arrivalSpeed="13.32" duration="27.00" routeLength="269.04" waitingTime="0.00" waitingCount="0" stopTime="0.00" timeLoss="6.61" rerouteNo="1" devices="tripinfo_flow_8.11 routing_flow_8.11" vType="car" speedFactor="0.99" vaporized=""/>
    <tripinfo id="flow_7.13" depart="39.00" departLane="edge_2-3_0" departPos="5.10" departSpeed="0.00" departDelay="18.20" arrival="60.00" arrivalLane="edge_3-4_0" arrivalPos="83.20" arrivalSpeed="9.30" duration="21.00" routeLength="178.10" waitingTime="0.00" waitingCount="0" stopTime="0.00" timeLoss="8.29" rerouteNo="1" devices="tripinfo_flow_7.13 routing_flow_7.13" vType="car" speedFactor="1.02" vaporized=""/>
    <tripinfo id="flow_8.12" depart="36.00" departLane="edge_14-13_0" departPos="5.10" departSpeed="0.00" departDelay="16.80" arrival="61.00" arrivalLane="edge_9-5_0" arrivalPos="79.20" arrivalSpeed="14.61" duration="25.00" routeLength="263.88" waitingTime="0.00" waitingCount="0" stopTime="0.00" timeLoss="7.16" rerouteNo="1" devices="tripinfo_flow_8.12 routing_flow_8.12" vType="car" speedFactor="1.12" vaporized=""/>
    <tripinfo id="flow_4.17" depart="51.00" departLane="edge_15-16_0" departPos="5.10" departSpeed="0.00" departDelay="23.80" arrival="61.00" arrivalLane="edge_15-16_0" arrivalPos="83.20" arrivalSpeed="12.97" duration="10.00" routeLength="78.10" waitingTime="0.00" waitingCount="0" stopTime="0.00" timeLoss="3.28" rerouteNo="1" devices="tripinfo_flow_4.17 routing_flow_4.17" vType="car" speedFactor="0.96" vaporized=""/>
    <tripinfo id="flow_0.0" depart="0.00" departLane="edge_1-2_0" departPos="5.10" departSpeed="0.00" departDelay="0.00" arrival="62.00" arrivalLane="edge_10-14_1" arrivalPos="79.20" arrivalSpeed="14.52" duration="62.00" routeLength="366.33" waitingTime="23.00" waitingCount="1" stopTime="0.00" timeLoss="35.65" rerouteNo="1" devices="tripinfo_flow_0.0 routing_flow_0.0" vType="car" speedFactor="1.06" vaporized=""/>
    <tripinfo id="flow_2.0" depart="0.00" departLane="edge_15-11_0" departPos="5.10" departSpeed="0.00" departDelay="0.00" arrival="62.00" arrivalLane="edge_7-3_0" arrivalPos="79.20" arrivalSpeed="13.31" duration="62.00" routeLength="274.10" waitingTime="34.00" waitingCount="1" stopTime="0.00" timeLoss="42.44" rerouteNo="1" devices="tripinfo_flow_2.0 routing_flow_2.0" vType="car" speedFactor="1.01" vaporized=""/>
    <tripinfo id="flow_2.1" depart="6.00" departLane="edge_15-11_0" departPos="5.10" departSpeed="0.00" departDelay="4.40" arrival="62.00" arrivalLane="edge_7-3_1" arrivalPos="79.20" arrivalSpeed="13.77" duration="56.00" routeLength="274.10" waitingTime="25.00" waitingCount="1" stopTime="0.00" timeLoss="36.47" rerouteNo="1" devices="tripinfo_flow_2.1 routing_flow_2.1" vType="car" speedFactor="1.05" vaporized=""/>
    <tripinfo id="flow_7.14" depart="42.00" departLane="edge_2-3_0" departPos="5.10" departSpeed="0.00" departDelay="19.60" arrival="62.00" arrivalLane="edge_3-4_0" arrivalPos="83.20" arrivalSpeed="10.97" duration="20.00" routeLength="178.10" waitingTime="0.00" waitingCount="0" stopTime="0.00" timeLoss="6.93" rerouteNo="1" devices="tripinfo_flow_7.14 routing_flow_7.14" vType="car" speedFactor="1.00" vaporized=""/>
    <tripinfo id="flow_1.2" depart="28.00" departLane="edge_13-9_0" departPos="5.10" departSpeed="0.00" departDelay="24.80" arrival="63.00" arrivalLane="edge_1-2_1" arrivalPos="83.20" arrivalSpeed="13.90" duration="35.00" routeLength="373.04" waitingTime="0.00" waitingCount="0" stopTime="0.00" timeLoss="7.12" rerouteNo="1" devices="tripinfo_flow_1.2 routing_flow_1.2" vType="car" speedFactor="1.01" vaporized=""/>
    <tripinfo id="flow_3.2" depart="15.00" departLane="edge_15-11_0" departPos="5.10" departSpeed="0.00" departDelay="11.80" arrival="63.00" arrivalLane="edge_11-12_0" arrivalPos="79.20" arrivalSpeed="11.14" duration="48.00" routeLength="162.33" waitingTime="23.00" waitingCount="1" stopTime="0.00" timeLoss="33.16" rerouteNo="1" devices="tripinfo_flow_3.2 routing_flow_3.2" vType="car" speedFactor="0.89" vaporized=""/>
    <tripinfo id="flow_0.1" depart="3.00" departLane="edge_1-2_0" departPos="5.10" departSpeed="0.00" departDelay="1.40" arrival="64.00" arrivalLane="edge_10-14_1" arrivalPos="79.20" arrivalSpeed="14.37" duration="61.00" routeLength="366.33" waitingTime="22.00" waitingCount="1" stopTime="0.00" timeLoss="35.79" rerouteNo="1" devices="tripinfo_flow_0.1 routing_flow_0.1" vType="car" speedFactor="1.09" vaporized=""/>
    <tripinfo id="flow_3.3" depart="21.00" departLane="edge_15-11_0" departPos="5.10" departSpeed="0.00" departDelay="16.20" arrival="64.00" arrivalLane="edge_11-12_0" arrivalPos="79.20" arrivalSpeed="15.11" duration="43.00" routeLength="162.33" waitingTime="18.00" waitingCount="1" stopTime="0.00" timeLoss="32.23" rerouteNo="1" devices="tripinfo_flow_3.3 routing_flow_3.3" vType="car" speedFactor="1.17" vaporized=""/>
    <tripinfo id="flow_7.15" depart="45.00" departLane="edge_2-3_0" departPos="5.10" departSpeed="0.00" departDelay="21.00" arrival="64.00" arrivalLane="edge_3-4_0" arrivalPos="83.20" arrivalSpeed="11.76" duration="19.00" routeLength="178.10" waitingTime="0.00" waitingCount="0" stopTime="0.00" timeLoss="6.73" rerouteNo="1" devices="tripinfo_flow_7.15 routing_flow_7.15" vType="car" speedFactor="1.08" vaporized=""/>
    <tripinfo id="flow_4.18" depart="54.00" departLane="edge_15-16_0" departPos="5.10" departSpeed="0.00" departDelay="25.20" arrival="64.00" arrivalLane="edge_15-16_0" arrivalPos="83.20" arrivalSpeed="12.24" duration="10.00" routeLength="78.10" waitingTime="0.00" waitingCount="0" stopTime="0.00" timeLoss="3.36" rerouteNo="1" devices="tripinfo_flow_4.18 routing_flow_4.18" vType="car" speedFactor="0.94" vaporized=""/>
    <tripinfo id="flow_2.2" depart="12.00" departLane="edge_15-11_0" departPos="5.10" departSpeed="0.00" departDelay="8.80" arrival="65.00" arrivalLane="edge_7-3_1" arrivalPos="79.20" arrivalSpeed="13.29" duration="53.00" routeLength="274.10" waitingTime="21.00" waitingCount="1" stopTime="0.00" timeLoss="32.23" rerouteNo="1" devices="tripinfo_flow_2.2 routing_flow_2.2" vType="car" speedFactor="0.97" vaporized=""/>
    <tripinfo id="flow_8.13" depart="39.00" departLane="edge_14-13_0" departPos="5.10" departSpeed="0.00" departDelay="18.20" arrival="65.00" arrivalLane="edge_9-5_1" arrivalPos="79.20" arrivalSpeed="13.55" duration="26.00" routeLength="269.04" waitingTime="0.00" waitingCount="0" stopTime="0.00" timeLoss="5.42" rerouteNo="1" devices="tripinfo_flow_8.13 routing_flow_8.13" vType="car" speedFactor="1.00" vaporized=""/>