<?xml version="1.0" encoding="UTF-8"?>

<!-- generated on 2025-08-17 19:35:58 by Eclipse SUMO sumo Version 1.21.0
<sumoConfiguration xmlns:xsi="http://www.w3.org/2001/XMLSchema-instance" xsi:noNamespaceSchemaLocation="http://sumo.dlr.de/xsd/sumoConfiguration.xsd">

    <input>
        <net-file value="sumo_files\city.net.xml"/>
        <route-files value="sumo_files\city.rou.xml"/>
        <junction-taz value="true"/>
    </input>

    <output>
        <tripinfo-output value="sumo_files\tripinfo.xml"/>
    </output>

    <time>
        <begin value="0"/>
    </time>

    <report>
        <no-warnings value="true"/>
        <no-step-log value="true"/>
    </report>

    <traci_server>
        <remote-port value="60550"/>
    </traci_server>

</sumoConfiguration>
-->

<tripinfos xmlns:xsi="http://www.w3.org/2001/XMLSchema-instance" xsi:noNamespaceSchemaLocation="http://sumo.dlr.de/xsd/tripinfo_file.xsd">
    <tripinfo id="flow_0.0" depart="0.00" departLane="edge_5-9_0" departPos="5.10" departSpeed="0.00" departDelay="0.00" arrival="9.00" arrivalLane="edge_5-9_0" arrivalPos="79.20" arrivalSpeed="13.82" duration="9.00" routeLength="74.10" waitingTime="0.00" waitingCount="0" stopTime="0.00" timeLoss="3.29" rerouteNo="1" devices="tripinfo_flow_0.0 routing_flow_0.0" vType="car" speedFactor="1.06" vaporized=""/>
    <tripinfo id="flow_4.0" depart="0.00" departLane="edge_14-15_0" departPos="5.10" departSpeed="0.00" departDelay="0.00" arrival="9.00" arrivalLane="edge_14-15_0" arrivalPos="79.20" arrivalSpeed="13.20" duration="9.00" routeLength="74.10" waitingTime="0.00" waitingCount="0" stopTime="0.00" timeLoss="3.10" rerouteNo="1" devices="tripinfo_flow_4.0 routing_flow_4.0" vType="car" speedFactor="1.03" vaporized=""/>
    <tripinfo id="flow_8.0" depart="0.00" departLane="edge_2-3_0" departPos="5.10" departSpeed="0.00" departDelay="0.00" arrival="9.00" arrivalLane="edge_2-3_0" arrivalPos="79.20" arrivalSpeed="12.25" duration="9.00" routeLength="74.10" waitingTime="0.00" waitingCount="0" stopTime="0.00" timeLoss="3.02" rerouteNo="1" devices="tripinfo_flow_8.0 routing_flow_8.0" vType="car" speedFactor="0.94" vaporized=""/>
    <tripinfo id="flow_3.0" depart="0.00" departLane="edge_3-4_0" departPos="5.10" departSpeed="0.00" departDelay="0.00" arrival="26.00" arrivalLane="edge_8-12_0" arrivalPos="79.20" arrivalSpeed="14.56" duration="26.00" routeLength="263.88" waitingTime="0.00" waitingCount="0" stopTime="0.00" timeLoss="7.10" rerouteNo="1" devices="tripinfo_flow_3.0 routing_flow_3.0" vType="car" speedFactor="1.08" vaporized=""/>
    <tripinfo id="flow_9.0" depart="0.00" departLane="edge_1-5_0" departPos="5.10" departSpeed="0.00" departDelay="0.00" arrival="28.00" arrivalLane="edge_9-13_0" arrivalPos="83.20" arrivalSpeed="10.81" duration="28.00" routeLength="282.10" waitingTime="0.00" waitingCount="0" stopTime="0.00" timeLoss="4.10" rerouteNo="1" devices="tripinfo_flow_9.0 routing_flow_9.0" vType="car" speedFactor="0.86" vaporized=""/>
    <tripinfo id="flow_0.1" depart="20.00" departLane="edge_5-9_0" departPos="5.10" departSpeed="0.00" departDelay="0.00" arrival="29.00" arrivalLane="edge_5-9_0" arrivalPos="79.20" arrivalSpeed="14.81" duration="9.00" routeLength="74.10" waitingTime="0.00" waitingCount="0" stopTime="0.00" timeLoss="3.28" rerouteNo="1" devices="tripinfo_flow_0.1 routing_flow_0.1" vType="car" speedFactor="1.09" vaporized=""/>
    <tripinfo id="flow_4.1" depart="20.00" departLane="edge_14-15_0" departPos="5.10" departSpeed="0.00" departDelay="0.00" arrival="29.00" arrivalLane="edge_14-15_0" arrivalPos="79.20" arrivalSpeed="12.71" duration="9.00" routeLength="74.10" waitingTime="0.00" waitingCount="0" stopTime="0.00" timeLoss="3.27" rerouteNo="1" devices="tripinfo_flow_4.1 routing_flow_4.1" vType="car" speedFactor="0.99" vaporized=""/>
    <tripinfo id="flow_8.1" depart="20.00" departLane="edge_2-3_0" departPos="5.10" departSpeed="0.00" departDelay="0.00" arrival="29.00" arrivalLane="edge_2-3_0" arrivalPos="79.20" arrivalSpeed="12.97" duration="9.00" routeLength="74.10" waitingTime="0.00" waitingCount="0" stopTime="0.00" timeLoss="2.71" rerouteNo="1" devices="tripinfo_flow_8.1 routing_flow_8.1" vType="car" speedFactor="0.94" vaporized=""/>
    <tripinfo id="flow_6.0" depart="0.00" departLane="edge_16-15_0" departPos="5.10" departSpeed="0.00" departDelay="0.00" arrival="34.00" arrivalLane="edge_13-9_1" arrivalPos="83.20" arrivalSpeed="13.58" duration="34.00" routeLength="373.04" waitingTime="0.00" waitingCount="0" stopTime="0.00" timeLoss="7.00" rerouteNo="1" devices="tripinfo_flow_6.0 routing_flow_6.0" vType="car" speedFactor="1.05" vaporized=""/>
    <tripinfo id="flow_1.0" depart="0.00" departLane="edge_15-14_0" departPos="5.10" departSpeed="0.00" departDelay="0.00" arrival="36.00" arrivalLane="edge_9-5_0" arrivalPos="79.20" arrivalSpeed="12.06" duration="36.00" routeLength="363.88" waitingTime="0.00" waitingCount="0" stopTime="0.00" timeLoss="6.52" rerouteNo="1" devices="tripinfo_flow_1.0 routing_flow_1.0" vType="car" speedFactor="0.94" vaporized=""/>
    <tripinfo id="flow_9.1" depart="20.00" departLane="edge_1-5_0" departPos="5.10" departSpeed="0.00" departDelay="0.00" arrival="42.00" arrivalLane="edge_9-13_0" arrivalPos="83.20" arrivalSpeed="15.06" duration="22.00" routeLength="282.10" waitingTime="0.00" waitingCount="0" stopTime="0.00" timeLoss="4.01" rerouteNo="1" devices="tripinfo_flow_9.1 routing_flow_9.1" vType="car" speedFactor="1.16" vaporized=""/>
    <tripinfo id="flow_3.1" depart="20.00" departLane="edge_3-4_0" departPos="5.10" departSpeed="0.00" departDelay="0.00" arrival="46.00" arrivalLane="edge_8-12_0" arrivalPos="79.20" arrivalSpeed="14.67" duration="26.00" routeLength="263.88" waitingTime="0.00" waitingCount="0" stopTime="0.00" timeLoss="7.50" rerouteNo="1" devices="tripinfo_flow_3.1 routing_flow_3.1" vType="car" speedFactor="1.12" vaporized=""/>
    <tripinfo id="flow_0.2" depart="40.00" departLane="edge_5-9_0" departPos="5.10" departSpeed="0.00" departDelay="0.00" arrival="49.00" arrivalLane="edge_5-9_0" arrivalPos="79.20" arrivalSpeed="13.42" duration="9.00" routeLength="74.10" waitingTime="0.00" waitingCount="0" stopTime="0.00" timeLoss="3.44" rerouteNo="1" devices="tripinfo_flow_0.2 routing_flow_0.2" vType="car" speedFactor="1.02" vaporized=""/>
    <tripinfo id="flow_4.2" depart="40.00" departLane="edge_14-15_0" departPos="5.10" departSpeed="0.00" departDelay="0.00" arrival="49.00" arrivalLane="edge_14-15_0" arrivalPos="79.20" arrivalSpeed="11.10" duration="9.00" routeLength="74.10" waitingTime="0.00" waitingCount="0" stopTime="0.00" timeLoss="2.49" rerouteNo="1" devices="tripinfo_flow_4.2 routing_flow_4.2" vType="car" speedFactor="0.83" vaporized=""/>
    <tripinfo id="flow_8.2" depart="43.00" departLane="edge_2-3_0" departPos="5.10" departSpeed="0.00" departDelay="3.00" arrival="52.00" arrivalLane="edge_2-3_1" arrivalPos="79.20" arrivalSpeed="15.22" duration="9.00" routeLength="74.10" waitingTime="0.00" waitingCount="0" stopTime="0.00" timeLoss="3.42" rerouteNo="1" devices="tripinfo_flow_8.2 routing_flow_8.2" vType="car" speedFactor="1.13" vaporized=""/>
    <tripinfo id="flow_1.1" depart="20.00" departLane="edge_15-14_0" departPos="5.10" departSpeed="0.00" departDelay="0.00" arrival="53.00" arrivalLane="edge_9-5_0" arrivalPos="79.20" arrivalSpeed="13.10" duration="33.00" routeLength="363.88" waitingTime="0.00" waitingCount="0" stopTime="0.00" timeLoss="7.18" rerouteNo="1" devices="tripinfo_flow_1.1 routing_flow_1.1" vType="car" speedFactor="1.03" vaporized=""/>
    <tripinfo id="flow_2.0" depart="0.00" departLane="edge_12-11_0" departPos="5.10" departSpeed="0.00" departDelay="0.00" arrival="55.00" arrivalLane="edge_7-3_0" arrivalPos="79.20" arrivalSpeed="12.90" duration="55.00" routeLength="262.33" waitingTime="24.00" waitingCount="1" stopTime="0.00" timeLoss="35.37" rerouteNo="1" devices="tripinfo_flow_2.0 routing_flow_2.0" vType="car" speedFactor="1.01" vaporized=""/>
    <tripinfo id="flow_2.1" depart="20.00" departLane="edge_12-11_0" departPos="5.10" departSpeed="0.00" departDelay="0.00" arrival="55.00" arrivalLane="edge_7-3_1" arrivalPos="79.20" arrivalSpeed="13.31" duration="35.00" routeLength="262.33" waitingTime="3.00" waitingCount="1" stopTime="0.00" timeLoss="15.96" rerouteNo="1" devices="tripinfo_flow_2.1 routing_flow_2.1" vType="car" speedFactor="1.05" vaporized=""/>
    <tripinfo id="flow_6.1" depart="20.00" departLane="edge_16-15_0" departPos="5.10" departSpeed="0.00" departDelay="0.00" arrival="58.00" arrivalLane="edge_13-9_0" arrivalPos="83.20" arrivalSpeed="12.10" duration="38.00" routeLength="367.88" waitingTime="0.00" waitingCount="0" stopTime="0.00" timeLoss="7.09" rerouteNo="1" devices="tripinfo_flow_6.1 routing_flow_6.1" vType="car" speedFactor="0.88" vaporized=""/>
    <tripinfo id="flow_5.0" depart="0.00" departLane="edge_13-9_0" departPos="5.10" departSpeed="0.00" departDelay="0.00" arrival="59.00" arrivalLane="edge_3-4_0" arrivalPos="83.20" arrivalSpeed="10.39" duration="59.00" routeLength="571.88" waitingTime="0.00" waitingCount="0" stopTime="0.00" timeLoss="8.44" rerouteNo="1" devices="tripinfo_flow_5.0 routing_flow_5.0" vType="car" speedFactor="0.83" vaporized=""/>
    <tripinfo id="flow_7.0" depart="3.00" departLane="edge_16-15_0" departPos="5.10" departSpeed="0.00" departDelay="3.00" arrival="64.00" arrivalLane="edge_6-2_0" arrivalPos="79.20" arrivalSpeed="12.03" duration="61.00" routeLength="466.33" waitingTime="10.00" waitingCount="1" stopTime="0.00" timeLoss="22.27" rerouteNo="1" devices="tripinfo_flow_7.0 routing_flow_7.0" vType="car" speedFactor="0.89" vaporized=""/>
    <tripinfo id="flow_7.1" depart="23.00" departLane="edge_16-15_0" departPos="5.10" departSpeed="0.00" departDelay="3.00" arrival="66.00" arrivalLane="edge_6-2_0" arrivalPos="79.20" arrivalSpeed="13.07" duration="43.00" routeLength="466.33" waitingTime="0.00" waitingCount="0" stopTime="0.00" timeLoss="6.27" rerouteNo="1" devices="tripinfo_flow_7.1 routing_flow_7.1" vType="car" speedFactor="0.94" vaporized=""/>
    <tripinfo id="flow_9.2" depart="40.00" departLane="edge_1-5_0" departPos="5.10" departSpeed="0.00" departDelay="0.00" arrival="66.00" arrivalLane="edge_9-13_0" arrivalPos="83.20" arrivalSpeed="11.79" duration="26.00" routeLength="282.10" waitingTime="0.00" waitingCount="0" stopTime="0.00" timeLoss="3.63" rerouteNo="1" devices="tripinfo_flow_9.2 routing_flow_9.2" vType="car" speedFactor="0.93" vaporized=""/>
    <tripinfo id="flow_3.2" depart="40.00" departLane="edge_3-4_0" departPos="5.10" departSpeed="0.00" departDelay="0.00" arrival="68.00" arrivalLane="edge_8-12_0" arrivalPos="79.20" arrivalSpeed="11.67" duration="28.00" routeLength="263.88" waitingTime="0.00" waitingCount="0" stopTime="0.00" timeLoss="5.71" rerouteNo="1" devices="tripinfo_flow_3.2 routing_flow_3.2" vType="car" speedFactor="0.89" vaporized=""/>
    <tripinfo id="flow_0.3" depart="60.00" departLane="edge_5-9_0" departPos="5.10" departSpeed="0.00" departDelay="0.00" arrival="69.00" arrivalLane="edge_5-9_0" arrivalPos="79.20" arrivalSpeed="15.79" duration="9.00" routeLength="74.10" waitingTime="0.00" waitingCount="0" stopTime="0.00" timeLoss="4.03" rerouteNo="1" devices="tripinfo_flow_0.3 routing_flow_0.3" vType="car" speedFactor="1.18" vaporized=""/>
    <tripinfo id="flow_4.3" depart="60.00" departLane="edge_14-15_0" departPos="5.10" departSpeed="0.00" departDelay="0.00" arrival="69.00" arrivalLane="edge_14-15_0" arrivalPos="79.20" arrivalSpeed="13.16" duration="9.00" routeLength="74.10" waitingTime="0.00" waitingCount="0" stopTime="0.00" timeLoss="3.07" rerouteNo="1" devices="tripinfo_flow_4.3 routing_flow_4.3" vType="car" speedFactor="0.99" vaporized=""/>
    <tripinfo id="flow_8.3" depart="60.00" departLane="edge_2-3_0" departPos="5.10" departSpeed="0.00" departDelay="0.00" arrival="69.00" arrivalLane="edge_2-3_0" arrivalPos="79.20" arrivalSpeed="14.91" duration="9.00" routeLength="74.10" waitingTime="0.00" waitingCount="0" stopTime="0.00" timeLoss="3.33" rerouteNo="1" devices="tripinfo_flow_8.3 routing_flow_8.3" vType="car" speedFactor="1.10" vaporized=""/>
    <tripinfo id="flow_1.2" depart="40.00" departLane="edge_15-14_0" departPos="5.10" departSpeed="0.00" departDelay="0.00" arrival="72.00" arrivalLane="edge_9-5_0" arrivalPos="79.20" arrivalSpeed="13.68" duration="32.00" routeLength="363.88" waitingTime="0.00" waitingCount="0" stopTime="0.00" timeLoss="6.07" rerouteNo="1" devices="tripinfo_flow_1.2 routing_flow_1.2" vType="car" speedFactor="1.01" vaporized=""/>
    <tripinfo id="flow_5.1" depart="21.00" departLane="edge_13-9_0" departPos="5.10" departSpeed="0.00" departDelay="1.00" arrival="73.00" arrivalLane="edge_3-4_0" arrivalPos="83.20" arrivalSpeed="12.46" duration="52.00" routeLength="571.88" waitingTime="0.00" waitingCount="0" stopTime="0.00" timeLoss="7.57" rerouteNo="1" devices="tripinfo_flow_5.1 routing_flow_5.1" vType="car" speedFactor="0.93" vaporized=""/>
    <tripinfo id="flow_6.2" depart="40.00" departLane="edge_16-15_0" departPos="5.10" departSpeed="0.00" departDelay="0.00" arrival="77.00" arrivalLane="edge_13-9_0" arrivalPos="83.20" arrivalSpeed="12.07" duration="37.00" routeLength="367.88" waitingTime="0.00" waitingCount="0" stopTime="0.00" timeLoss="7.59" rerouteNo="1" devices="tripinfo_flow_6.2 routing_flow_6.2" vType="car" speedFactor="0.92" vaporized=""/>
    <tripinfo id="flow_7.2" depart="43.00" departLane="edge_16-15_0" departPos="5.10" departSpeed="0.00" departDelay="3.00" arrival="85.00" arrivalLane="edge_6-2_0" arrivalPos="79.20" arrivalSpeed="12.08" duration="42.00" routeLength="466.33" waitingTime="0.00" waitingCount="0" stopTime="0.00" timeLoss="5.96" rerouteNo="1" devices="tripinfo_flow_7.2 routing_flow_7.2" vType="car" speedFactor="0.95" vaporized=""/>
    <tripinfo id="flow_3.3" depart="60.00" departLane="edge_3-4_0" departPos="5.10" departSpeed="0.00" departDelay="0.00" arrival="85.00" arrivalLane="edge_8-12_0" arrivalPos="79.20" arrivalSpeed="15.04" duration="25.00" routeLength="263.88" waitingTime="0.00" waitingCount="0" stopTime="0.00" timeLoss="8.40" rerouteNo="1" devices="tripinfo_flow_3.3 routing_flow_3.3" vType="car" speedFactor="1.17" vaporized=""/>
    <tripinfo id="flow_9.3" depart="60.00" departLane="edge_1-5_0" departPos="5.10" departSpeed="0.00" departDelay="0.00" arrival="87.00" arrivalLane="edge_9-13_0" arrivalPos="83.20" arrivalSpeed="12.27" duration="27.00" routeLength="282.10" waitingTime="0.00" waitingCount="0" stopTime="0.00" timeLoss="3.58" rerouteNo="1" devices="tripinfo_flow_9.3 routing_flow_9.3" vType="car" speedFactor="0.90" vaporized=""/>
    <tripinfo id="flow_0.4" depart="80.00" departLane="edge_5-9_0" departPos="5.10" departSpeed="0.00" departDelay="0.00" arrival="89.00" arrivalLane="edge_5-9_0" arrivalPos="79.20" arrivalSpeed="13.16" duration="9.00" routeLength="74.10" waitingTime="0.00" waitingCount="0" stopTime="0.00" timeLoss="3.03" rerouteNo="1" devices="tripinfo_flow_0.4 routing_flow_0.4" vType="car" speedFactor="1.03" vaporized=""/>
    <tripinfo id="flow_4.4" depart="80.00" departLane="edge_14-15_0" departPos="5.10" departSpeed="0.00" departDelay="0.00" arrival="89.00" arrivalLane="edge_14-15_0" arrivalPos="79.20" arrivalSpeed="14.12" duration="9.00" routeLength="74.10" waitingTime="0.00" waitingCount="0" stopTime="0.00" timeLoss="3.23" rerouteNo="1" devices="tripinfo_flow_4.4 routing_flow_4.4" vType="car" speedFactor="1.04" vaporized=""/>
    <tripinfo id="flow_1.3" depart="60.00" departLane="edge_15-14_0" departPos="5.10" departSpeed="0.00" departDelay="0.00" arrival="91.00" arrivalLane="edge_9-5_0" arrivalPos="79.20" arrivalSpeed="15.66" duration="31.00" routeLength="363.88" waitingTime="0.00" waitingCount="0" stopTime="0.00" timeLoss="7.94" rerouteNo="1" devices="tripinfo_flow_1.3 routing_flow_1.3" vType="car" speedFactor="1.15" vaporized=""/>
    <tripinfo id="flow_8.4" depart="81.00" departLane="edge_2-3_0" departPos="5.10" departSpeed="0.00" departDelay="1.00" arrival="91.00" arrivalLane="edge_2-3_0" arrivalPos="79.20" arrivalSpeed="12.13" duration="10.00" routeLength="74.10" waitingTime="0.00" waitingCount="0" stopTime="0.00" timeLoss="3.12" rerouteNo="1" devices="tripinfo_flow_8.4 routing_flow_8.4" vType="car" speedFactor="0.88" vaporized=""/>
    <tripinfo id="flow_6.3" depart="60.00" departLane="edge_16-15_0" departPos="5.10" departSpeed="0.00" departDelay="0.00" arrival="94.00" arrivalLane="edge_13-9_0" arrivalPos="83.20" arrivalSpeed="12.31" duration="34.00" routeLength="367.88" waitingTime="0.00" waitingCount="0" stopTime="0.00" timeLoss="6.73" rerouteNo="1" devices="tripinfo_flow_6.3 routing_flow_6.3" vType="car" speedFactor="0.97" vaporized=""/>
    <tripinfo id="flow_5.2" depart="40.00" departLane="edge_13-9_0" departPos="5.10" departSpeed="0.00" departDelay="0.00" arrival="95.00" arrivalLane="edge_3-4_0" arrivalPos="83.20" arrivalSpeed="10.83" duration="55.00" routeLength="571.88" waitingTime="0.00" waitingCount="0" stopTime="0.00" timeLoss="7.74" rerouteNo="1" devices="tripinfo_flow_5.2 routing_flow_5.2" vType="car" speedFactor="0.87" vaporized=""/>
    <tripinfo id="flow_2.4" depart="80.00" departLane="edge_12-8_0" departPos="5.10" departSpeed="0.00" departDelay="0.00" arrival="104.00" arrivalLane="edge_4-3_0" arrivalPos="83.20" arrivalSpeed="15.12" duration="24.00" routeLength="279.36" waitingTime="0.00" waitingCount="0" stopTime="0.00" timeLoss="4.64" rerouteNo="1" devices="tripinfo_flow_2.4 routing_flow_2.4" vType="car" speedFactor="1.09" vaporized=""/>
    <tripinfo id="flow_3.4" depart="80.00" departLane="edge_3-4_0" departPos="5.10" departSpeed="0.00" departDelay="0.00" arrival="106.00" arrivalLane="edge_8-12_0" arrivalPos="79.20" arrivalSpeed="13.28" duration="26.00" routeLength="263.88" waitingTime="0.00" waitingCount="0" stopTime="0.00" timeLoss="6.88" rerouteNo="1" devices="tripinfo_flow_3.4 routing_flow_3.4" vType="car" speedFactor="1.04" vaporized=""/>
    <tripinfo id="flow_9.4" depart="80.00" departLane="edge_1-5_0" departPos="5.10" departSpeed="0.00" departDelay="0.00" arrival="108.00" arrivalLane="edge_9-13_0" arrivalPos="83.20" arrivalSpeed="11.27" duration="28.00" routeLength="282.10" waitingTime="0.00" waitingCount="0" stopTime="0.00" timeLoss="3.91" rerouteNo="1" devices="tripinfo_flow_9.4 routing_flow_9.4" vType="car" speedFactor="0.85" vaporized=""/>
    <tripinfo id="flow_4.5" depart="100.00" departLane="edge_14-15_0" departPos="5.10" departSpeed="0.00" departDelay="0.00" arrival="109.00" arrivalLane="edge_14-15_0" arrivalPos="79.20" arrivalSpeed="13.33" duration="9.00" routeLength="74.10" waitingTime="0.00" waitingCount="0" stopTime="0.00" timeLoss="3.25" rerouteNo="1" devices="tripinfo_flow_4.5 routing_flow_4.5" vType="car" speedFactor="1.00" vaporized=""/>
    <tripinfo id="flow_8.5" depart="100.00" departLane="edge_2-3_0" departPos="5.10" departSpeed="0.00" departDelay="0.00" arrival="109.00" arrivalLane="edge_2-3_0" arrivalPos="79.20" arrivalSpeed="13.13" duration="9.00" routeLength="74.10" waitingTime="0.00" waitingCount="0" stopTime="0.00" timeLoss="3.07" rerouteNo="1" devices="tripinfo_flow_8.5 routing_flow_8.5" vType="car" speedFactor="1.02" vaporized=""/>
    <tripinfo id="flow_0.5" depart="100.00" departLane="edge_5-9_0" departPos="5.10" departSpeed="0.00" departDelay="0.00" arrival="110.00" arrivalLane="edge_5-9_0" arrivalPos="79.20" arrivalSpeed="11.29" duration="10.00" routeLength="74.10" waitingTime="0.00" waitingCount="0" stopTime="0.00" timeLoss="3.00" rerouteNo="1" devices="tripinfo_flow_0.5 routing_flow_0.5" vType="car" speedFactor="0.85" vaporized=""/>
    <tripinfo id="flow_5.3" depart="60.00" departLane="edge_13-9_0" departPos="5.10" departSpeed="0.00" departDelay="0.00" arrival="112.00" arrivalLane="edge_3-4_0" arrivalPos="83.20" arrivalSpeed="7.82" duration="52.00" routeLength="571.88" waitingTime="0.00" waitingCount="0" stopTime="0.00" timeLoss="11.52" rerouteNo="1" devices="tripinfo_flow_5.3 routing_flow_5.3" vType="car" speedFactor="1.02" vaporized=""/>
    <tripinfo id="flow_6.4" depart="80.00" departLane="edge_16-15_0" departPos="5.10" departSpeed="0.00" departDelay="0.00" arrival="114.00" arrivalLane="edge_13-9_0" arrivalPos="83.20" arrivalSpeed="12.76" duration="34.00" routeLength="367.88" waitingTime="0.00" waitingCount="0" stopTime="0.00" timeLoss="7.19" rerouteNo="1" devices="tripinfo_flow_6.4 routing_flow_6.4" vType="car" speedFactor="1.00" vaporized=""/>
    <tripinfo id="flow_1.4" depart="80.00" departLane="edge_15-14_0" departPos="5.10" departSpeed="0.00" departDelay="0.00" arrival="116.00" arrivalLane="edge_9-5_0" arrivalPos="79.20" arrivalSpeed="12.57" duration="36.00" routeLength="363.88" waitingTime="0.00" waitingCount="0" stopTime="0.00" timeLoss="7.60" rerouteNo="1" devices="tripinfo_flow_1.4 routing_flow_1.4" vType="car" speedFactor="0.96" vaporized=""/>
    <tripinfo id="flow_2.5" depart="100.00" departLane="edge_12-8_0" departPos="5.10" departSpeed="0.00" departDelay="0.00" arrival="125.00" arrivalLane="edge_4-3_0" arrivalPos="83.20" arrivalSpeed="13.61" duration="25.00" routeLength="279.36" waitingTime="0.00" waitingCount="0" stopTime="0.00" timeLoss="4.51" rerouteNo="1" devices="tripinfo_flow_2.5 routing_flow_2.5" vType="car" speedFactor="1.02" vaporized=""/>
    <tripinfo id="flow_3.5" depart="100.00" departLane="edge_3-4_0" departPos="5.10" departSpeed="0.00" departDelay="0.00" arrival="125.00" arrivalLane="edge_8-12_0" arrivalPos="79.20" arrivalSpeed="14.23" duration="25.00" routeLength="263.88" waitingTime="0.00" waitingCount="0" stopTime="0.00" timeLoss="6.99" rerouteNo="1" devices="tripinfo_flow_3.5 routing_flow_3.5" vType="car" speedFactor="1.10" vaporized=""/>
    <tripinfo id="flow_9.5" depart="100.00" departLane="edge_1-5_0" departPos="5.10" departSpeed="0.00" departDelay="0.00" arrival="126.00" arrivalLane="edge_9-13_0" arrivalPos="83.20" arrivalSpeed="12.40" duration="26.00" routeLength="282.10" waitingTime="0.00" waitingCount="0" stopTime="0.00" timeLoss="4.23" rerouteNo="1" devices="tripinfo_flow_9.5 routing_flow_9.5" vType="car" speedFactor="0.97" vaporized=""/>
    <tripinfo id="flow_5.4" depart="80.00" departLane="edge_13-9_0" departPos="5.10" departSpeed="0.00" departDelay="0.00" arrival="127.00" arrivalLane="edge_3-4_0" arrivalPos="83.20" arrivalSpeed="15.02" duration="47.00" routeLength="571.88" waitingTime="0.00" waitingCount="0" stopTime="0.00" timeLoss="8.72" rerouteNo="1" devices="tripinfo_flow_5.4 routing_flow_5.4" vType="car" speedFactor="1.09" vaporized=""/>
    <tripinfo id="flow_0.6" depart="120.00" departLane="edge_5-9_0" departPos="5.10" departSpeed="0.00" departDelay="0.00" arrival="129.00" arrivalLane="edge_5-9_0" arrivalPos="79.20" arrivalSpeed="14.41" duration="9.00" routeLength="74.10" waitingTime="0.00" waitingCount="0" stopTime="0.00" timeLoss="3.70" rerouteNo="1" devices="tripinfo_flow_0.6 routing_flow_0.6" vType="car" speedFactor="1.08" vaporized=""/>
    <tripinfo id="flow_4.6" depart="120.00" departLane="edge_14-15_0" departPos="5.10" departSpeed="0.00" departDelay="0.00" arrival="129.00" arrivalLane="edge_14-15_0" arrivalPos="79.20" arrivalSpeed="12.40" duration="9.00" routeLength="74.10" waitingTime="0.00" waitingCount="0" stopTime="0.00" timeLoss="2.83" rerouteNo="1" devices="tripinfo_flow_4.6 routing_flow_4.6" vType="car" speedFactor="0.94" vaporized=""/>
    <tripinfo id="flow_8.6" depart="120.00" departLane="edge_2-3_0" departPos="5.10" departSpeed="0.00" departDelay="0.00" arrival="129.00" arrivalLane="edge_2-3_0" arrivalPos="79.20" arrivalSpeed="14.36" duration="9.00" routeLength="74.10" waitingTime="0.00" waitingCount="0" stopTime="0.00" timeLoss="3.25" rerouteNo="1" devices="tripinfo_flow_8.6 routing_flow_8.6" vType="car" speedFactor="1.04" vaporized=""/>
    <tripinfo id="flow_1.5" depart="100.00" departLane="edge_15-14_0" departPos="5.10" departSpeed="0.00" departDelay="0.00" arrival="131.00" arrivalLane="edge_9-5_0" arrivalPos="79.20" arrivalSpeed="15.76" duration="31.00" routeLength="363.88" waitingTime="0.00" waitingCount="0" stopTime="0.00" timeLoss="7.34" rerouteNo="1" devices="tripinfo_flow_1.5 routing_flow_1.5" vType="car" speedFactor="1.17" vaporized=""/>
    <tripinfo id="flow_7.5" depart="100.00" departLane="edge_16-12_0" departPos="5.10" departSpeed="0.00" departDelay="0.00" arrival="137.00" arrivalLane="edge_3-2_0" arrivalPos="79.20" arrivalSpeed="15.74" duration="37.00" routeLength="483.36" waitingTime="0.00" waitingCount="0" stopTime="0.00" timeLoss="5.45" rerouteNo="1" devices="tripinfo_flow_7.5 routing_flow_7.5" vType="car" speedFactor="1.14" vaporized=""/>
    <tripinfo id="flow_6.5" depart="100.00" departLane="edge_16-15_0" departPos="5.10" departSpeed="0.00" departDelay="0.00" arrival="138.00" arrivalLane="edge_13-9_0" arrivalPos="83.20" arrivalSpeed="11.82" duration="38.00" routeLength="367.88" waitingTime="0.00" waitingCount="0" stopTime="0.00" timeLoss="7.59" rerouteNo="1" devices="tripinfo_flow_6.5 routing_flow_6.5" vType="car" speedFactor="0.90" vaporized=""/>
    <tripinfo id="flow_9.6" depart="120.00" departLane="edge_1-5_0" departPos="5.10" departSpeed="0.00" departDelay="0.00" arrival="144.00" arrivalLane="edge_9-13_0" arrivalPos="83.20" arrivalSpeed="13.29" duration="24.00" routeLength="282.10" waitingTime="0.00" waitingCount="0" stopTime="0.00" timeLoss="3.85" rerouteNo="1" devices="tripinfo_flow_9.6 routing_flow_9.6" vType="car" speedFactor="1.02" vaporized=""/>
    <tripinfo id="flow_2.2" depart="40.00" departLane="edge_12-11_0" departPos="5.10" departSpeed="0.00" departDelay="0.00" arrival="145.00" arrivalLane="edge_7-3_0" arrivalPos="79.20" arrivalSpeed="12.89" duration="105.00" routeLength="262.33" waitingTime="72.00" waitingCount="2" stopTime="0.00" timeLoss="85.00" rerouteNo="1" devices="tripinfo_flow_2.2 routing_flow_2.2" vType="car" speedFactor="0.97" vaporized=""/>
    <tripinfo id="flow_7.3" depart="63.00" departLane="edge_16-15_0" departPos="5.10" departSpeed="0.00" departDelay="3.00" arrival="145.00" arrivalLane="edge_6-2_0" arrivalPos="79.20" arrivalSpeed="15.34" duration="82.00" routeLength="466.33" waitingTime="39.00" waitingCount="1" stopTime="0.00" timeLoss="52.53" rerouteNo="1" devices="tripinfo_flow_7.3 routing_flow_7.3" vType="car" speedFactor="1.18" vaporized=""/>
    <tripinfo id="flow_2.3" depart="60.00" departLane="edge_12-11_0" departPos="5.10" departSpeed="0.00" departDelay="0.00" arrival="146.00" arrivalLane="edge_7-3_0" arrivalPos="79.20" arrivalSpeed="13.95" duration="86.00" routeLength="262.33" waitingTime="47.00" waitingCount="2" stopTime="0.00" timeLoss="65.47" rerouteNo="1" devices="tripinfo_flow_2.3 routing_flow_2.3" vType="car" speedFactor="1.01" vaporized=""/>
    <tripinfo id="flow_2.6" depart="120.00" departLane="edge_12-8_0" departPos="5.10" departSpeed="0.00" departDelay="0.00" arrival="146.00" arrivalLane="edge_4-3_0" arrivalPos="83.20" arrivalSpeed="13.06" duration="26.00" routeLength="279.36" waitingTime="0.00" waitingCount="0" stopTime="0.00" timeLoss="4.88" rerouteNo="1" devices="tripinfo_flow_2.6 routing_flow_2.6" vType="car" speedFactor="1.02" vaporized=""/>
    <tripinfo id="flow_3.6" depart="122.00" departLane="edge_3-4_0" departPos="5.10" departSpeed="0.00" departDelay="2.00" arrival="149.00" arrivalLane="edge_8-12_0" arrivalPos="79.20" arrivalSpeed="12.92" duration="27.00" routeLength="263.88" waitingTime="0.00" waitingCount="0" stopTime="0.00" timeLoss="7.16" rerouteNo="1" devices="tripinfo_flow_3.6 routing_flow_3.6" vType="car" speedFactor="0.99" vaporized=""/>
    <tripinfo id="flow_0.7" depart="140.00" departLane="edge_5-9_0" departPos="5.10" departSpeed="0.00" departDelay="0.00" arrival="149.00" arrivalLane="edge_5-9_0" arrivalPos="79.20" arrivalSpeed="13.92" duration="9.00" routeLength="74.10" waitingTime="0.00" waitingCount="0" stopTime="0.00" timeLoss="3.76" rerouteNo="1" devices="tripinfo_flow_0.7 routing_flow_0.7" vType="car" speedFactor="1.02" vaporized=""/>
    <tripinfo id="flow_4.7" depart="140.00" departLane="edge_14-15_0" departPos="5.10" departSpeed="0.00" departDelay="0.00" arrival="149.00" arrivalLane="edge_14-15_0" arrivalPos="79.20" arrivalSpeed="12.80" duration="9.00" routeLength="74.10" waitingTime="0.00" waitingCount="0" stopTime="0.00" timeLoss="3.09" rerouteNo="1" devices="tripinfo_flow_4.7 routing_flow_4.7" vType="car" speedFactor="0.96" vaporized=""/>
    <tripinfo id="flow_8.7" depart="140.00" departLane="edge_2-3_0" departPos="5.10" departSpeed="0.00" departDelay="0.00" arrival="149.00" arrivalLane="edge_2-3_0" arrivalPos="79.20" arrivalSpeed="13.90" duration="9.00" routeLength="74.10" waitingTime="0.00" waitingCount="0" stopTime="0.00" timeLoss="3.57" rerouteNo="1" devices="tripinfo_flow_8.7 routing_flow_8.7" vType="car" speedFactor="1.01" vaporized=""/>
    <tripinfo id="flow_1.6" depart="120.00" departLane="edge_15-14_0" departPos="5.10" departSpeed="0.00" departDelay="0.00" arrival="152.00" arrivalLane="edge_9-5_0" arrivalPos="79.20" arrivalSpeed="15.01" duration="32.00" routeLength="363.88" waitingTime="0.00" waitingCount="0" stopTime="0.00" timeLoss="7.99" rerouteNo="1" devices="tripinfo_flow_1.6 routing_flow_1.6" vType="car" speedFactor="1.12" vaporized=""/>
    <tripinfo id="flow_7.4" depart="83.00" departLane="edge_16-15_0" departPos="5.10" departSpeed="0.00" departDelay="3.00" arrival="154.00" arrivalLane="edge_6-2_0" arrivalPos="79.20" arrivalSpeed="12.43" duration="71.00" routeLength="466.33" waitingTime="22.00" waitingCount="1" stopTime="0.00" timeLoss="32.16" rerouteNo="1" devices="tripinfo_flow_7.4 routing_flow_7.4" vType="car" speedFactor="0.90" vaporized=""/>